 Entering Gaussian System, Link 0=g16
 Input=TETCEN8.gjf
 Output=TETCEN8.log
 Initial command:
 /opt/software/gaussian/g16_avx/g16/l1.exe "/users/dkb18196/GAUSSTMP/Gau-3559625.inp" -scrdir="/users/dkb18196/GAUSSTMP/"
 Entering Link 1 = /opt/software/gaussian/g16_avx/g16/l1.exe PID=   3559626.
  
 Copyright (c) 1988-2019, Gaussian, Inc.  All Rights Reserved.
  
 This is part of the Gaussian(R) 16 program.  It is based on
 the Gaussian(R) 09 system (copyright 2009, Gaussian, Inc.),
 the Gaussian(R) 03 system (copyright 2003, Gaussian, Inc.),
 the Gaussian(R) 98 system (copyright 1998, Gaussian, Inc.),
 the Gaussian(R) 94 system (copyright 1995, Gaussian, Inc.),
 the Gaussian 92(TM) system (copyright 1992, Gaussian, Inc.),
 the Gaussian 90(TM) system (copyright 1990, Gaussian, Inc.),
 the Gaussian 88(TM) system (copyright 1988, Gaussian, Inc.),
 the Gaussian 86(TM) system (copyright 1986, Carnegie Mellon
 University), and the Gaussian 82(TM) system (copyright 1983,
 Carnegie Mellon University). Gaussian is a federally registered
 trademark of Gaussian, Inc.
  
 This software contains proprietary and confidential information,
 including trade secrets, belonging to Gaussian, Inc.
  
 This software is provided under written license and may be
 used, copied, transmitted, or stored only in accord with that
 written license.
  
 The following legend is applicable only to US Government
 contracts under FAR:
  
                    RESTRICTED RIGHTS LEGEND
  
 Use, reproduction and disclosure by the US Government is
 subject to restrictions as set forth in subparagraphs (a)
 and (c) of the Commercial Computer Software - Restricted
 Rights clause in FAR 52.227-19.
  
 Gaussian, Inc.
 340 Quinnipiac St., Bldg. 40, Wallingford CT 06492
  
  
 ---------------------------------------------------------------
 Warning -- This program may not be used in any manner that
 competes with the business of Gaussian, Inc. or will provide
 assistance to any competitor of Gaussian, Inc.  The licensee
 of this program is prohibited from giving any competitor of
 Gaussian, Inc. access to this program.  By using this program,
 the user acknowledges that Gaussian, Inc. is engaged in the
 business of creating and licensing software in the field of
 computational chemistry and represents and warrants to the
 licensee that it is not a competitor of Gaussian, Inc. and that
 it will not use this program in any manner prohibited above.
 ---------------------------------------------------------------
  

 Cite this work as:
 Gaussian 16, Revision C.01,
 M. J. Frisch, G. W. Trucks, H. B. Schlegel, G. E. Scuseria, 
 M. A. Robb, J. R. Cheeseman, G. Scalmani, V. Barone, 
 G. A. Petersson, H. Nakatsuji, X. Li, M. Caricato, A. V. Marenich, 
 J. Bloino, B. G. Janesko, R. Gomperts, B. Mennucci, H. P. Hratchian, 
 J. V. Ortiz, A. F. Izmaylov, J. L. Sonnenberg, D. Williams-Young, 
 F. Ding, F. Lipparini, F. Egidi, J. Goings, B. Peng, A. Petrone, 
 T. Henderson, D. Ranasinghe, V. G. Zakrzewski, J. Gao, N. Rega, 
 G. Zheng, W. Liang, M. Hada, M. Ehara, K. Toyota, R. Fukuda, 
 J. Hasegawa, M. Ishida, T. Nakajima, Y. Honda, O. Kitao, H. Nakai, 
 T. Vreven, K. Throssell, J. A. Montgomery, Jr., J. E. Peralta, 
 F. Ogliaro, M. J. Bearpark, J. J. Heyd, E. N. Brothers, K. N. Kudin, 
 V. N. Staroverov, T. A. Keith, R. Kobayashi, J. Normand, 
 K. Raghavachari, A. P. Rendell, J. C. Burant, S. S. Iyengar, 
 J. Tomasi, M. Cossi, J. M. Millam, M. Klene, C. Adamo, R. Cammi, 
 J. W. Ochterski, R. L. Martin, K. Morokuma, O. Farkas, 
 J. B. Foresman, and D. J. Fox, Gaussian, Inc., Wallingford CT, 2019.
 
 ******************************************
 Gaussian 16:  ES64L-G16RevC.01  3-Jul-2019
                 4-Apr-2025 
 ******************************************
 %nproc=8
 Will use up to    8 processors via shared memory.
 %mem=8GB
 %chk=Molecule_TETCEN.chk
 --------------------
 #p B3LYP/6-31G(d) SP
 --------------------
 1/38=1,172=1/1;
 2/12=2,17=6,18=5,40=1/2;
 3/5=1,6=6,7=1,11=2,25=1,30=1,74=-5/1,2,3;
 4//1;
 5/5=2,38=5/2;
 6/7=2,8=2,9=2,10=2,28=1/1;
 99/5=1,9=1/99;
 Leave Link    1 at Fri Apr  4 11:53:08 2025, MaxMem=  1073741824 cpu:               1.8 elap:               0.3
 (Enter /opt/software/gaussian/g16_avx/g16/l101.exe)
 ---------------
 Molecule_TETCEN
 ---------------
 Symbolic Z-matrix:
 Charge =  0 Multiplicity = 1
 C                    -1.1172   -0.6098    4.7694 
 C                    -0.4746    0.2717    3.9467 
 C                    -0.4185    0.0114    2.5012 
 C                     0.2133    0.8599    1.6675 
 C                     0.2988    0.6114    0.2587 
 C                     0.9076    1.448    -0.6327 
 C                    -0.9548   -1.1859    2.0071 
 C                    -1.6568   -2.082     2.8874 
 C                    -1.7168   -1.8267    4.2704 
 H                    -1.139    -0.3757    5.7626 
 H                    -0.062     1.1818    4.279 
 H                     0.6487    1.787     2.023 
 H                     1.3268    2.3805   -0.2697 
 H                    -1.9925   -2.9775    2.4767 
 H                    -2.1537   -2.5107    4.9043 
 C                    -0.2988   -0.6114   -0.2587 
 C                     0.9548    1.1859   -2.0071 
 C                    -0.9076   -1.448     0.6327 
 C                    -0.2133   -0.8599   -1.6675 
 C                     0.4185   -0.0114   -2.5012 
 C                     1.6568    2.082    -2.8874 
 H                    -1.3268   -2.3805    0.2697 
 H                    -0.6487   -1.787    -2.023 
 C                     0.4746   -0.2717   -3.9467 
 C                     1.7168    1.8267   -4.2704 
 H                     1.9925    2.9775   -2.4767 
 C                     1.1172    0.6098   -4.7694 
 H                     0.062    -1.1818   -4.279 
 H                     2.1537    2.5107   -4.9043 
 H                     1.139     0.3757   -5.7626 
 
 ITRead=  0  0  0  0  0  0  0  0  0  0  0  0  0  0  0  0  0  0  0  0
 ITRead=  0  0  0  0  0  0  0  0  0  0
 MicOpt= -1 -1 -1 -1 -1 -1 -1 -1 -1 -1 -1 -1 -1 -1 -1 -1 -1 -1 -1 -1
 MicOpt= -1 -1 -1 -1 -1 -1 -1 -1 -1 -1
 NAtoms=     30 NQM=       30 NQMF=       0 NMMI=      0 NMMIF=      0
                NMic=       0 NMicF=      0.
                    Isotopes and Nuclear Properties:
 (Nuclear quadrupole moments (NQMom) in fm**2, nuclear magnetic moments (NMagM)
  in nuclear magnetons)

  Atom         1           2           3           4           5           6           7           8           9          10
 IAtWgt=          12          12          12          12          12          12          12          12          12           1
 AtmWgt=  12.0000000  12.0000000  12.0000000  12.0000000  12.0000000  12.0000000  12.0000000  12.0000000  12.0000000   1.0078250
 NucSpn=           0           0           0           0           0           0           0           0           0           1
 AtZEff=  -0.0000000  -0.0000000  -0.0000000  -0.0000000  -0.0000000  -0.0000000  -0.0000000  -0.0000000  -0.0000000  -0.0000000
 NQMom=    0.0000000   0.0000000   0.0000000   0.0000000   0.0000000   0.0000000   0.0000000   0.0000000   0.0000000   0.0000000
 NMagM=    0.0000000   0.0000000   0.0000000   0.0000000   0.0000000   0.0000000   0.0000000   0.0000000   0.0000000   2.7928460
 AtZNuc=   6.0000000   6.0000000   6.0000000   6.0000000   6.0000000   6.0000000   6.0000000   6.0000000   6.0000000   1.0000000

  Atom        11          12          13          14          15          16          17          18          19          20
 IAtWgt=           1           1           1           1           1          12          12          12          12          12
 AtmWgt=   1.0078250   1.0078250   1.0078250   1.0078250   1.0078250  12.0000000  12.0000000  12.0000000  12.0000000  12.0000000
 NucSpn=           1           1           1           1           1           0           0           0           0           0
 AtZEff=  -0.0000000  -0.0000000  -0.0000000  -0.0000000  -0.0000000  -0.0000000  -0.0000000  -0.0000000  -0.0000000  -0.0000000
 NQMom=    0.0000000   0.0000000   0.0000000   0.0000000   0.0000000   0.0000000   0.0000000   0.0000000   0.0000000   0.0000000
 NMagM=    2.7928460   2.7928460   2.7928460   2.7928460   2.7928460   0.0000000   0.0000000   0.0000000   0.0000000   0.0000000
 AtZNuc=   1.0000000   1.0000000   1.0000000   1.0000000   1.0000000   6.0000000   6.0000000   6.0000000   6.0000000   6.0000000

  Atom        21          22          23          24          25          26          27          28          29          30
 IAtWgt=          12           1           1          12          12           1          12           1           1           1
 AtmWgt=  12.0000000   1.0078250   1.0078250  12.0000000  12.0000000   1.0078250  12.0000000   1.0078250   1.0078250   1.0078250
 NucSpn=           0           1           1           0           0           1           0           1           1           1
 AtZEff=  -0.0000000  -0.0000000  -0.0000000  -0.0000000  -0.0000000  -0.0000000  -0.0000000  -0.0000000  -0.0000000  -0.0000000
 NQMom=    0.0000000   0.0000000   0.0000000   0.0000000   0.0000000   0.0000000   0.0000000   0.0000000   0.0000000   0.0000000
 NMagM=    0.0000000   2.7928460   2.7928460   0.0000000   0.0000000   2.7928460   0.0000000   2.7928460   2.7928460   2.7928460
 AtZNuc=   6.0000000   1.0000000   1.0000000   6.0000000   6.0000000   1.0000000   6.0000000   1.0000000   1.0000000   1.0000000
 Leave Link  101 at Fri Apr  4 11:53:08 2025, MaxMem=  1073741824 cpu:               0.9 elap:               0.1
 (Enter /opt/software/gaussian/g16_avx/g16/l202.exe)
                          Input orientation:                          
 ---------------------------------------------------------------------
 Center     Atomic      Atomic             Coordinates (Angstroms)
 Number     Number       Type             X           Y           Z
 ---------------------------------------------------------------------
      1          6           0       -1.117200   -0.609800    4.769400
      2          6           0       -0.474600    0.271700    3.946700
      3          6           0       -0.418500    0.011400    2.501200
      4          6           0        0.213300    0.859900    1.667500
      5          6           0        0.298800    0.611400    0.258700
      6          6           0        0.907600    1.448000   -0.632700
      7          6           0       -0.954800   -1.185900    2.007100
      8          6           0       -1.656800   -2.082000    2.887400
      9          6           0       -1.716800   -1.826700    4.270400
     10          1           0       -1.139000   -0.375700    5.762600
     11          1           0       -0.062000    1.181800    4.279000
     12          1           0        0.648700    1.787000    2.023000
     13          1           0        1.326800    2.380500   -0.269700
     14          1           0       -1.992500   -2.977500    2.476700
     15          1           0       -2.153700   -2.510700    4.904300
     16          6           0       -0.298800   -0.611400   -0.258700
     17          6           0        0.954800    1.185900   -2.007100
     18          6           0       -0.907600   -1.448000    0.632700
     19          6           0       -0.213300   -0.859900   -1.667500
     20          6           0        0.418500   -0.011400   -2.501200
     21          6           0        1.656800    2.082000   -2.887400
     22          1           0       -1.326800   -2.380500    0.269700
     23          1           0       -0.648700   -1.787000   -2.023000
     24          6           0        0.474600   -0.271700   -3.946700
     25          6           0        1.716800    1.826700   -4.270400
     26          1           0        1.992500    2.977500   -2.476700
     27          6           0        1.117200    0.609800   -4.769400
     28          1           0        0.062000   -1.181800   -4.279000
     29          1           0        2.153700    2.510700   -4.904300
     30          1           0        1.139000    0.375700   -5.762600
 ---------------------------------------------------------------------
                    Distance matrix (angstroms):
                    1          2          3          4          5
     1  C    0.000000
     2  C    1.366313   0.000000
     3  C    2.453325   1.469821   0.000000
     4  C    3.681308   2.452333   1.346915   0.000000
     5  C    4.882909   3.783502   2.429676   1.433102   0.000000
     6  C    6.125116   4.925958   3.693737   2.473628   1.365698
     7  C    2.826405   2.473305   1.401884   2.380144   2.803338
     8  C    2.449585   2.838946   2.462694   3.693265   4.241325
     9  C    1.445464   2.459903   2.862562   4.209299   5.108886
    10  H    1.020649   2.039129   3.362394   4.486119   5.773608
    11  H    2.136298   1.053064   2.158124   2.645627   4.076560
    12  H    4.050403   2.694171   2.126111   1.084190   2.148772
    13  H    6.348823   5.046792   4.041855   2.702749   2.113222
    14  H    3.410077   3.875851   3.378106   4.499555   4.801019
    15  H    2.169320   3.387938   3.891889   5.238369   6.110963
    16  C    5.094268   4.300716   2.831829   2.477341   1.456045
    17  C    7.310176   6.190855   4.856971   3.762816   2.427805
    18  C    4.225967   3.758650   2.420818   2.766520   2.415865
    19  C    6.504865   5.733065   4.263723   3.776496   2.477341
    20  C    7.455071   6.515611   5.071991   4.263723   2.831829
    21  C    8.577147   7.384103   6.134433   4.931971   3.728911
    22  H    4.840104   4.613105   3.394965   3.850447   3.405020
    23  H    6.909558   6.317110   4.873974   4.622652   3.443288
    24  C    8.866710   7.968816   6.515611   5.733065   4.300716
    25  C    9.781926   8.645287   7.328669   6.201119   4.899023
    26  H    8.662847   7.393781   6.276158   4.982387   3.993678
    27  C    9.872622   8.866710   7.455071   6.504865   5.094268
    28  H    9.142824   8.370349   6.901139   6.289061   4.884912
    29  H   10.677864   9.500594   8.228253   7.048322   5.805563
    30  H   10.815945   9.843019   8.417180   7.503183   6.084204
                    6          7          8          9         10
     6  C    0.000000
     7  C    4.168274   0.000000
     8  C    5.606082   1.439002   0.000000
     9  C    6.453799   2.472609   1.407646   0.000000
    10  H    6.958040   3.846314   3.383246   2.160073   0.000000
    11  H    5.013560   3.400680   3.890029   3.433585   2.405578
    12  H    2.689738   3.377810   4.586031   4.868801   4.675227
    13  H    1.084921   4.807154   6.227604   6.897575   7.075694
    14  H    6.137100   2.123011   1.040812   2.148886   4.277261
    15  H    7.463326   3.403854   2.120985   1.029838   2.514860
    16  C    2.415865   2.427805   3.728911   4.899023   6.084204
    17  C    1.399964   5.038433   6.438614   7.457896   8.197001
    18  C    3.644586   1.399964   2.459050   3.745808   5.245879
    19  C    2.766520   3.762816   4.931971   6.201119   7.503183
    20  C    2.420818   4.856971   6.134433   7.328669   8.417180
    21  C    2.459050   6.438614   7.852844   8.825713   9.416968
    22  H    4.523746   2.141031   2.655251   4.057634   5.850337
    23  H    3.849705   4.086163   5.021486   6.383518   7.927656
    24  C    3.758650   6.190855   7.384103   8.645287   9.843019
    25  C    3.745808   7.457896   8.825713   9.903646  10.661484
    26  H    2.629965   6.791534   8.227363   9.075384   9.430605
    27  C    4.225967   7.310176   8.577147   9.781926  10.815945
    28  H    4.574537   6.367806   7.424414   8.756270  10.145242
    29  H    4.574786   8.431789   9.814448  10.861350  11.530652
    30  H    5.245879   8.197001   9.416968  10.661484  11.772176
                   11         12         13         14         15
    11  H    0.000000
    12  H    2.441495   0.000000
    13  H    4.904724   2.463440   0.000000
    14  H    4.926956   5.466465   6.875219   0.000000
    15  H    4.289611   5.884349   7.925149   2.477323   0.000000
    16  C    4.884912   3.443288   3.405020   3.993678   5.805563
    17  C    6.367806   4.086163   2.141031   6.791534   8.431789
    18  C    4.574537   3.849705   4.523746   2.629965   4.574786
    19  C    6.289061   4.622652   3.850447   4.982387   7.048322
    20  C    6.901139   4.873974   3.394965   6.276158   8.228253
    21  C    7.424414   5.021486   2.655251   8.227363   9.814448
    22  H    5.510371   4.934037   5.477195   2.381263   4.709589
    23  H    6.990937   5.552192   4.934037   4.844625   7.125746
    24  C    8.370349   6.317110   4.613105   7.393781   9.500594
    25  C    8.756270   6.383518   4.057634   9.075384  10.861350
    26  H    7.285945   4.844625   2.381263   8.710822  10.089127
    27  C    9.142824   6.909558   4.840104   8.662847  10.677864
    28  H    8.879265   6.990937   5.510371   7.285945   9.539827
    29  H    9.539827   7.125746   4.709589  10.089127  11.831179
    30  H   10.145242   7.927656   5.850337   9.430605  11.530652
                   16         17         18         19         20
    16  C    0.000000
    17  C    2.803338   0.000000
    18  C    1.365698   4.168274   0.000000
    19  C    1.433102   2.380144   2.473628   0.000000
    20  C    2.429676   1.401884   3.693737   1.346915   0.000000
    21  C    4.241325   1.439002   5.606082   3.693265   2.462694
    22  H    2.113222   4.807154   1.084921   2.702749   4.041855
    23  H    2.148772   3.377810   2.689738   1.084190   2.126111
    24  C    3.783502   2.473305   4.925958   2.452333   1.469821
    25  C    5.108886   2.472609   6.453799   4.209299   2.862562
    26  H    4.801019   2.123011   6.137100   4.499555   3.378106
    27  C    4.882909   2.826405   6.125116   3.681308   2.453325
    28  H    4.076560   3.400680   5.013560   2.645627   2.158124
    29  H    6.110963   3.403854   7.463326   5.238369   3.891889
    30  H    5.773608   3.846314   6.958040   4.486119   3.362394
                   21         22         23         24         25
    21  C    0.000000
    22  H    6.227604   0.000000
    23  H    4.586031   2.463440   0.000000
    24  C    2.838946   5.046792   2.694171   0.000000
    25  C    1.407646   6.897575   4.868801   2.459903   0.000000
    26  H    1.040812   6.875219   5.466465   3.875851   2.148886
    27  C    2.449585   6.348823   4.050403   1.366313   1.445464
    28  H    3.890029   4.904724   2.441495   1.053064   3.433585
    29  H    2.120985   7.925149   5.884349   3.387938   1.029838
    30  H    3.383246   7.075694   4.675227   2.039129   2.160073
                   26         27         28         29         30
    26  H    0.000000
    27  C    3.410077   0.000000
    28  H    4.926956   2.136298   0.000000
    29  H    2.477323   2.169320   4.289611   0.000000
    30  H    4.277261   1.020649   2.405578   2.514860   0.000000
 Stoichiometry    C18H12
 Framework group  CI[X(C18H12)]
 Deg. of freedom    42
 Full point group                 CI      NOp   2
 Largest Abelian subgroup         CI      NOp   2
 Largest concise Abelian subgroup CI      NOp   2
                         Standard orientation:                         
 ---------------------------------------------------------------------
 Center     Atomic      Atomic             Coordinates (Angstroms)
 Number     Number       Type             X           Y           Z
 ---------------------------------------------------------------------
      1          6           0       -1.117200   -0.609800    4.769400
      2          6           0       -0.474600    0.271700    3.946700
      3          6           0       -0.418500    0.011400    2.501200
      4          6           0        0.213300    0.859900    1.667500
      5          6           0        0.298800    0.611400    0.258700
      6          6           0        0.907600    1.448000   -0.632700
      7          6           0       -0.954800   -1.185900    2.007100
      8          6           0       -1.656800   -2.082000    2.887400
      9          6           0       -1.716800   -1.826700    4.270400
     10          1           0       -1.139000   -0.375700    5.762600
     11          1           0       -0.062000    1.181800    4.279000
     12          1           0        0.648700    1.787000    2.023000
     13          1           0        1.326800    2.380500   -0.269700
     14          1           0       -1.992500   -2.977500    2.476700
     15          1           0       -2.153700   -2.510700    4.904300
     16          6           0       -0.298800   -0.611400   -0.258700
     17          6           0        0.954800    1.185900   -2.007100
     18          6           0       -0.907600   -1.448000    0.632700
     19          6           0       -0.213300   -0.859900   -1.667500
     20          6           0        0.418500   -0.011400   -2.501200
     21          6           0        1.656800    2.082000   -2.887400
     22          1           0       -1.326800   -2.380500    0.269700
     23          1           0       -0.648700   -1.787000   -2.023000
     24          6           0        0.474600   -0.271700   -3.946700
     25          6           0        1.716800    1.826700   -4.270400
     26          1           0        1.992500    2.977500   -2.476700
     27          6           0        1.117200    0.609800   -4.769400
     28          1           0        0.062000   -1.181800   -4.279000
     29          1           0        2.153700    2.510700   -4.904300
     30          1           0        1.139000    0.375700   -5.762600
 ---------------------------------------------------------------------
 Rotational constants (GHZ):           1.6556663           0.2148010           0.1901419
 Leave Link  202 at Fri Apr  4 11:53:08 2025, MaxMem=  1073741824 cpu:               0.1 elap:               0.0
 (Enter /opt/software/gaussian/g16_avx/g16/l301.exe)
 Standard basis: 6-31G(d) (6D, 7F)
 Ernie: Thresh=  0.10000D-02 Tol=  0.10000D-05 Strict=F.
 There are   147 symmetry adapted cartesian basis functions of AG  symmetry.
 There are   147 symmetry adapted cartesian basis functions of AU  symmetry.
 There are   147 symmetry adapted basis functions of AG  symmetry.
 There are   147 symmetry adapted basis functions of AU  symmetry.
   294 basis functions,   552 primitive gaussians,   294 cartesian basis functions
    60 alpha electrons       60 beta electrons
       nuclear repulsion energy      1118.6090067343 Hartrees.
 IExCor=  402 DFT=T Ex+Corr=B3LYP ExCW=0 ScaHFX=  0.200000
 ScaDFX=  0.800000  0.720000  1.000000  0.810000 ScalE2=  1.000000  1.000000
 IRadAn=      5 IRanWt=     -1 IRanGd=            0 ICorTp=0 IEmpDi=  4
 NAtoms=   30 NActive=   30 NUniq=   15 SFac= 4.00D+00 NAtFMM=   60 NAOKFM=F Big=F
 Integral buffers will be    131072 words long.
 Raffenetti 2 integral format.
 Two-electron integral symmetry is turned on.
 Leave Link  301 at Fri Apr  4 11:53:08 2025, MaxMem=  1073741824 cpu:               0.5 elap:               0.1
 (Enter /opt/software/gaussian/g16_avx/g16/l302.exe)
 NPDir=0 NMtPBC=     1 NCelOv=     1 NCel=       1 NClECP=     1 NCelD=      1
         NCelK=      1 NCelE2=     1 NClLst=     1 CellRange=     0.0.
 One-electron integrals computed using PRISM.
 One-electron integral symmetry used in STVInt
 NBasis=   294 RedAO= T EigKep=  2.03D-04  NBF=   147   147
 NBsUse=   294 1.00D-06 EigRej= -1.00D+00 NBFU=   147   147
 Precomputing XC quadrature grid using
 IXCGrd= 4 IRadAn=           5 IRanWt=          -1 IRanGd=           0 AccXCQ= 0.00D+00.
 Generated NRdTot=       0 NPtTot=           0 NUsed=           0 NTot=          32
 NSgBfM=   293   293   293   293   293 MxSgAt=    30 MxSgA2=    30.
 Leave Link  302 at Fri Apr  4 11:53:08 2025, MaxMem=  1073741824 cpu:               3.0 elap:               0.4
 (Enter /opt/software/gaussian/g16_avx/g16/l303.exe)
 DipDrv:  MaxL=1.
 Leave Link  303 at Fri Apr  4 11:53:08 2025, MaxMem=  1073741824 cpu:               0.3 elap:               0.1
 (Enter /opt/software/gaussian/g16_avx/g16/l401.exe)
 ExpMin= 1.61D-01 ExpMax= 3.05D+03 ExpMxC= 4.57D+02 IAcc=3 IRadAn=         5 AccDes= 0.00D+00
 Harris functional with IExCor=  402 and IRadAn=       5 diagonalized for initial guess.
 HarFok:  IExCor=  402 AccDes= 0.00D+00 IRadAn=         5 IDoV= 1 UseB2=F ITyADJ=14
 ICtDFT=  3500011 ScaDFX=  1.000000  1.000000  1.000000  1.000000
 FoFCou: FMM=F IPFlag=           0 FMFlag=      100000 FMFlg1=           0
         NFxFlg=           0 DoJE=T BraDBF=F KetDBF=T FulRan=T
         wScrn=  0.000000 ICntrl=       500 IOpCl=  0 I1Cent=   200000004 NGrid=           0
         NMat0=    1 NMatS0=      1 NMatT0=    0 NMatD0=    1 NMtDS0=    0 NMtDT0=    0
 Petite list used in FoFCou.
 Harris En= -693.168165910905    
 JPrj=0 DoOrth=F DoCkMO=F.
 Initial guess orbital symmetries:
       Occupied  (AU) (AG) (AU) (AG) (AU) (AG) (AG) (AU) (AU) (AG)
                 (AG) (AU) (AU) (AG) (AG) (AU) (AG) (AU) (AG) (AU)
                 (AG) (AU) (AU) (AG) (AG) (AU) (AG) (AU) (AU) (AG)
                 (AU) (AG) (AG) (AG) (AU) (AU) (AU) (AG) (AG) (AG)
                 (AU) (AG) (AU) (AU) (AU) (AG) (AU) (AU) (AG) (AG)
                 (AG) (AU) (AG) (AU) (AG) (AG) (AU) (AU) (AG) (AU)
       Virtual   (AG) (AU) (AG) (AG) (AU) (AU) (AG) (AU) (AG) (AU)
                 (AU) (AG) (AG) (AU) (AG) (AU) (AU) (AG) (AG) (AU)
                 (AU) (AG) (AU) (AG) (AG) (AU) (AG) (AU) (AG) (AU)
                 (AG) (AU) (AG) (AU) (AU) (AG) (AU) (AG) (AU) (AU)
                 (AG) (AU) (AG) (AU) (AG) (AG) (AG) (AU) (AG) (AG)
                 (AU) (AU) (AG) (AU) (AU) (AG) (AU) (AG) (AG) (AU)
                 (AG) (AU) (AU) (AG) (AU) (AG) (AU) (AU) (AG) (AG)
                 (AG) (AU) (AU) (AU) (AG) (AG) (AG) (AU) (AG) (AU)
                 (AU) (AG) (AG) (AU) (AU) (AG) (AG) (AG) (AU) (AU)
                 (AU) (AG) (AU) (AG) (AG) (AG) (AU) (AU) (AG) (AU)
                 (AU) (AG) (AU) (AG) (AU) (AG) (AG) (AU) (AG) (AU)
                 (AU) (AG) (AG) (AU) (AG) (AG) (AU) (AG) (AU) (AU)
                 (AU) (AG) (AU) (AG) (AG) (AU) (AU) (AG) (AG) (AU)
                 (AU) (AU) (AG) (AU) (AG) (AG) (AU) (AG) (AU) (AG)
                 (AG) (AU) (AG) (AU) (AU) (AG) (AU) (AG) (AG) (AU)
                 (AG) (AU) (AG) (AU) (AU) (AG) (AU) (AG) (AU) (AG)
                 (AU) (AG) (AU) (AG) (AG) (AU) (AU) (AG) (AU) (AG)
                 (AU) (AG) (AG) (AU) (AG) (AU) (AU) (AG) (AG) (AU)
                 (AG) (AU) (AG) (AU) (AG) (AG) (AU) (AU) (AU) (AG)
                 (AG) (AU) (AG) (AG) (AU) (AG) (AU) (AG) (AU) (AU)
                 (AU) (AG) (AG) (AU) (AU) (AG) (AG) (AG) (AU) (AG)
                 (AU) (AU) (AU) (AG) (AU) (AG) (AU) (AG) (AG) (AU)
                 (AG) (AU) (AG) (AU) (AG) (AU) (AG) (AU) (AU) (AG)
                 (AG) (AU) (AG) (AU)
 The electronic state of the initial guess is 1-AG.
 Leave Link  401 at Fri Apr  4 11:53:10 2025, MaxMem=  1073741824 cpu:              11.1 elap:               1.4
 (Enter /opt/software/gaussian/g16_avx/g16/l502.exe)
 Integral symmetry usage will be decided dynamically.
 Closed shell SCF:
 Using DIIS extrapolation, IDIIS=  1040.
 NGot=  1073741824 LenX=  1073562032 LenY=  1073475155
 Requested convergence on RMS density matrix=1.00D-08 within 128 cycles.
 Requested convergence on MAX density matrix=1.00D-06.
 Requested convergence on             energy=1.00D-06.
 No special actions if energy rises.
 Fock matrices will be formed incrementally for  20 cycles.
 Integral accuracy reduced to 1.0D-05 until final iterations.

 Cycle   1  Pass 0  IDiag  1:
 FoFJK:  IHMeth= 1 ICntrl=       0 DoSepK=F KAlg= 0 I1Cent=           0 FoldK=F
 IRaf= 790000000 NMat=       1 IRICut=       1 DoRegI=T DoRafI=F ISym2E= 1 IDoP0=0 IntGTp=1.
 FoFCou: FMM=F IPFlag=           0 FMFlag=      100000 FMFlg1=           0
         NFxFlg=           0 DoJE=F BraDBF=F KetDBF=F FulRan=T
         wScrn=  0.000000 ICntrl=         0 IOpCl=  0 I1Cent=           0 NGrid=           0
         NMat0=    1 NMatS0=      1 NMatT0=    0 NMatD0=    1 NMtDS0=    0 NMtDT0=    0
 Petite list used in FoFCou.
 E= -692.780088478317    
 DIIS: error= 4.02D-02 at cycle   1 NSaved=   1.
 NSaved= 1 IEnMin= 1 EnMin= -692.780088478317     IErMin= 1 ErrMin= 4.02D-02
 ErrMax= 4.02D-02  0.00D+00 EMaxC= 1.00D-01 BMatC= 3.10D-01 BMatP= 3.10D-01
 IDIUse=3 WtCom= 5.98D-01 WtEn= 4.02D-01
 Coeff-Com:  0.100D+01
 Coeff-En:   0.100D+01
 Coeff:      0.100D+01
 Gap=     0.101 Goal=   None    Shift=    0.000
 GapD=    0.101 DampG=1.000 DampE=0.500 DampFc=0.5000 IDamp=-1.
 Damping current iteration by 5.00D-01
 RMSDP=5.18D-03 MaxDP=1.06D-01              OVMax= 1.50D-01

 Cycle   2  Pass 0  IDiag  1:
 RMSU=  2.42D-03    CP:  9.55D-01
 E= -692.960135138602     Delta-E=       -0.180046660285 Rises=F Damp=T
 DIIS: error= 7.14D-03 at cycle   2 NSaved=   2.
 NSaved= 2 IEnMin= 2 EnMin= -692.960135138602     IErMin= 2 ErrMin= 7.14D-03
 ErrMax= 7.14D-03  0.00D+00 EMaxC= 1.00D-01 BMatC= 1.83D-02 BMatP= 3.10D-01
 IDIUse=3 WtCom= 9.29D-01 WtEn= 7.14D-02
 Coeff-Com: -0.111D+00 0.111D+01
 Coeff-En:   0.000D+00 0.100D+01
 Coeff:     -0.103D+00 0.110D+01
 Gap=     0.101 Goal=   None    Shift=    0.000
 RMSDP=1.79D-03 MaxDP=5.58D-02 DE=-1.80D-01 OVMax= 7.97D-02

 Cycle   3  Pass 0  IDiag  1:
 RMSU=  1.63D-03    CP:  9.25D-01  1.15D+00
 E= -693.125839331114     Delta-E=       -0.165704192512 Rises=F Damp=F
 DIIS: error= 3.47D-03 at cycle   3 NSaved=   3.
 NSaved= 3 IEnMin= 3 EnMin= -693.125839331114     IErMin= 3 ErrMin= 3.47D-03
 ErrMax= 3.47D-03  0.00D+00 EMaxC= 1.00D-01 BMatC= 3.93D-03 BMatP= 1.83D-02
 IDIUse=3 WtCom= 9.65D-01 WtEn= 3.47D-02
 Coeff-Com: -0.704D-01 0.339D+00 0.732D+00
 Coeff-En:   0.000D+00 0.000D+00 0.100D+01
 Coeff:     -0.679D-01 0.327D+00 0.741D+00
 Gap=     0.101 Goal=   None    Shift=    0.000
 RMSDP=5.57D-04 MaxDP=1.24D-02 DE=-1.66D-01 OVMax= 1.75D-02

 Cycle   4  Pass 0  IDiag  1:
 RMSU=  3.43D-04    CP:  9.26D-01  1.22D+00  7.49D-01
 E= -693.128342505889     Delta-E=       -0.002503174775 Rises=F Damp=F
 DIIS: error= 2.17D-03 at cycle   4 NSaved=   4.
 NSaved= 4 IEnMin= 4 EnMin= -693.128342505889     IErMin= 4 ErrMin= 2.17D-03
 ErrMax= 2.17D-03  0.00D+00 EMaxC= 1.00D-01 BMatC= 1.56D-03 BMatP= 3.93D-03
 IDIUse=3 WtCom= 9.78D-01 WtEn= 2.17D-02
 Coeff-Com: -0.312D-01 0.108D+00 0.417D+00 0.506D+00
 Coeff-En:   0.000D+00 0.000D+00 0.256D+00 0.744D+00
 Coeff:     -0.305D-01 0.105D+00 0.414D+00 0.512D+00
 Gap=     0.101 Goal=   None    Shift=    0.000
 RMSDP=1.70D-04 MaxDP=4.92D-03 DE=-2.50D-03 OVMax= 1.12D-02

 Cycle   5  Pass 0  IDiag  1:
 RMSU=  9.12D-05    CP:  9.26D-01  1.21D+00  8.00D-01  6.63D-01
 E= -693.129752614795     Delta-E=       -0.001410108905 Rises=F Damp=F
 DIIS: error= 5.26D-04 at cycle   5 NSaved=   5.
 NSaved= 5 IEnMin= 5 EnMin= -693.129752614795     IErMin= 5 ErrMin= 5.26D-04
 ErrMax= 5.26D-04  0.00D+00 EMaxC= 1.00D-01 BMatC= 7.32D-05 BMatP= 1.56D-03
 IDIUse=3 WtCom= 9.95D-01 WtEn= 5.26D-03
 Coeff-Com: -0.733D-02 0.173D-01 0.117D+00 0.237D+00 0.636D+00
 Coeff-En:   0.000D+00 0.000D+00 0.000D+00 0.000D+00 0.100D+01
 Coeff:     -0.729D-02 0.172D-01 0.117D+00 0.235D+00 0.638D+00
 Gap=     0.101 Goal=   None    Shift=    0.000
 RMSDP=4.57D-05 MaxDP=1.15D-03 DE=-1.41D-03 OVMax= 3.35D-03

 Cycle   6  Pass 0  IDiag  1:
 RMSU=  2.67D-05    CP:  9.25D-01  1.21D+00  8.06D-01  6.95D-01  6.28D-01
 E= -693.129812817252     Delta-E=       -0.000060202457 Rises=F Damp=F
 DIIS: error= 2.49D-04 at cycle   6 NSaved=   6.
 NSaved= 6 IEnMin= 6 EnMin= -693.129812817252     IErMin= 6 ErrMin= 2.49D-04
 ErrMax= 2.49D-04  0.00D+00 EMaxC= 1.00D-01 BMatC= 1.44D-05 BMatP= 7.32D-05
 IDIUse=3 WtCom= 9.98D-01 WtEn= 2.49D-03
 Coeff-Com: -0.349D-02 0.658D-02 0.603D-01 0.134D+00 0.418D+00 0.385D+00
 Coeff-En:   0.000D+00 0.000D+00 0.000D+00 0.000D+00 0.138D+00 0.862D+00
 Coeff:     -0.348D-02 0.656D-02 0.602D-01 0.133D+00 0.417D+00 0.386D+00
 Gap=     0.101 Goal=   None    Shift=    0.000
 RMSDP=1.79D-05 MaxDP=5.19D-04 DE=-6.02D-05 OVMax= 1.39D-03

 Cycle   7  Pass 0  IDiag  1:
 RMSU=  6.83D-06    CP:  9.25D-01  1.21D+00  8.05D-01  6.93D-01  7.09D-01
                    CP:  4.49D-01
 E= -693.129830003105     Delta-E=       -0.000017185853 Rises=F Damp=F
 DIIS: error= 3.22D-05 at cycle   7 NSaved=   7.
 NSaved= 7 IEnMin= 7 EnMin= -693.129830003105     IErMin= 7 ErrMin= 3.22D-05
 ErrMax= 3.22D-05  0.00D+00 EMaxC= 1.00D-01 BMatC= 1.71D-07 BMatP= 1.44D-05
 IDIUse=1 WtCom= 1.00D+00 WtEn= 0.00D+00
 Coeff-Com: -0.754D-03 0.113D-02 0.138D-01 0.322D-01 0.110D+00 0.146D+00
 Coeff-Com:  0.697D+00
 Coeff:     -0.754D-03 0.113D-02 0.138D-01 0.322D-01 0.110D+00 0.146D+00
 Coeff:      0.697D+00
 Gap=     0.101 Goal=   None    Shift=    0.000
 RMSDP=2.99D-06 MaxDP=7.80D-05 DE=-1.72D-05 OVMax= 2.41D-04

 Initial convergence to 1.0D-05 achieved.  Increase integral accuracy.
 Cycle   8  Pass 1  IDiag  1:
 E= -693.129836787181     Delta-E=       -0.000006784076 Rises=F Damp=F
 DIIS: error= 5.86D-05 at cycle   1 NSaved=   1.
 NSaved= 1 IEnMin= 1 EnMin= -693.129836787181     IErMin= 1 ErrMin= 5.86D-05
 ErrMax= 5.86D-05  0.00D+00 EMaxC= 1.00D-01 BMatC= 5.63D-07 BMatP= 5.63D-07
 IDIUse=1 WtCom= 1.00D+00 WtEn= 0.00D+00
 Coeff-Com:  0.100D+01
 Coeff:      0.100D+01
 Gap=     0.101 Goal=   None    Shift=    0.000
 RMSDP=2.99D-06 MaxDP=7.80D-05 DE=-6.78D-06 OVMax= 2.60D-04

 Cycle   9  Pass 1  IDiag  1:
 RMSU=  4.33D-05    CP:  1.00D+00
 E= -693.129836878847     Delta-E=       -0.000000091666 Rises=F Damp=F
 DIIS: error= 3.69D-05 at cycle   2 NSaved=   2.
 NSaved= 2 IEnMin= 2 EnMin= -693.129836878847     IErMin= 2 ErrMin= 3.69D-05
 ErrMax= 3.69D-05  0.00D+00 EMaxC= 1.00D-01 BMatC= 3.04D-07 BMatP= 5.63D-07
 IDIUse=1 WtCom= 1.00D+00 WtEn= 0.00D+00
 Coeff-Com:  0.389D+00 0.611D+00
 Coeff:      0.389D+00 0.611D+00
 Gap=     0.101 Goal=   None    Shift=    0.000
 RMSDP=3.85D-06 MaxDP=1.21D-04 DE=-9.17D-08 OVMax= 3.27D-04

 Cycle  10  Pass 1  IDiag  1:
 RMSU=  3.85D-06    CP:  1.00D+00  1.00D+00
 E= -693.129836965714     Delta-E=       -0.000000086867 Rises=F Damp=F
 DIIS: error= 3.45D-05 at cycle   3 NSaved=   3.
 NSaved= 3 IEnMin= 3 EnMin= -693.129836965714     IErMin= 3 ErrMin= 3.45D-05
 ErrMax= 3.45D-05  0.00D+00 EMaxC= 1.00D-01 BMatC= 2.23D-07 BMatP= 3.04D-07
 IDIUse=1 WtCom= 1.00D+00 WtEn= 0.00D+00
 Coeff-Com:  0.594D-02 0.460D+00 0.534D+00
 Coeff:      0.594D-02 0.460D+00 0.534D+00
 Gap=     0.101 Goal=   None    Shift=    0.000
 RMSDP=1.92D-06 MaxDP=6.02D-05 DE=-8.69D-08 OVMax= 1.70D-04

 Cycle  11  Pass 1  IDiag  1:
 RMSU=  4.48D-07    CP:  1.00D+00  1.01D+00  5.25D-01
 E= -693.129837219800     Delta-E=       -0.000000254086 Rises=F Damp=F
 DIIS: error= 4.11D-06 at cycle   4 NSaved=   4.
 NSaved= 4 IEnMin= 4 EnMin= -693.129837219800     IErMin= 4 ErrMin= 4.11D-06
 ErrMax= 4.11D-06  0.00D+00 EMaxC= 1.00D-01 BMatC= 5.92D-09 BMatP= 2.23D-07
 IDIUse=1 WtCom= 1.00D+00 WtEn= 0.00D+00
 Coeff-Com: -0.310D-02 0.281D+00 0.338D+00 0.384D+00
 Coeff:     -0.310D-02 0.281D+00 0.338D+00 0.384D+00
 Gap=     0.101 Goal=   None    Shift=    0.000
 RMSDP=2.91D-07 MaxDP=9.70D-06 DE=-2.54D-07 OVMax= 2.56D-05

 Cycle  12  Pass 1  IDiag  1:
 RMSU=  9.28D-08    CP:  1.00D+00  1.01D+00  5.44D-01  4.07D-01
 E= -693.129837226013     Delta-E=       -0.000000006213 Rises=F Damp=F
 DIIS: error= 5.07D-07 at cycle   5 NSaved=   5.
 NSaved= 5 IEnMin= 5 EnMin= -693.129837226013     IErMin= 5 ErrMin= 5.07D-07
 ErrMax= 5.07D-07  0.00D+00 EMaxC= 1.00D-01 BMatC= 7.98D-11 BMatP= 5.92D-09
 IDIUse=1 WtCom= 1.00D+00 WtEn= 0.00D+00
 Coeff-Com: -0.196D-02 0.160D+00 0.193D+00 0.230D+00 0.419D+00
 Coeff:     -0.196D-02 0.160D+00 0.193D+00 0.230D+00 0.419D+00
 Gap=     0.101 Goal=   None    Shift=    0.000
 RMSDP=4.03D-08 MaxDP=1.15D-06 DE=-6.21D-09 OVMax= 2.69D-06

 Cycle  13  Pass 1  IDiag  1:
 RMSU=  2.97D-08    CP:  1.00D+00  1.01D+00  5.42D-01  4.45D-01  7.82D-01
 E= -693.129837226081     Delta-E=       -0.000000000068 Rises=F Damp=F
 DIIS: error= 7.67D-08 at cycle   6 NSaved=   6.
 NSaved= 6 IEnMin= 6 EnMin= -693.129837226081     IErMin= 6 ErrMin= 7.67D-08
 ErrMax= 7.67D-08  0.00D+00 EMaxC= 1.00D-01 BMatC= 1.79D-12 BMatP= 7.98D-11
 IDIUse=1 WtCom= 1.00D+00 WtEn= 0.00D+00
 Coeff-Com: -0.335D-03 0.243D-01 0.293D-01 0.358D-01 0.146D+00 0.765D+00
 Coeff:     -0.335D-03 0.243D-01 0.293D-01 0.358D-01 0.146D+00 0.765D+00
 Gap=     0.101 Goal=   None    Shift=    0.000
 RMSDP=9.38D-09 MaxDP=2.22D-07 DE=-6.82D-11 OVMax= 7.56D-07

 SCF Done:  E(RB3LYP) =  -693.129837226     A.U. after   13 cycles
            NFock= 13  Conv=0.94D-08     -V/T= 2.0086
 KE= 6.871957770441D+02 PE=-3.842467209982D+03 EE= 1.343532588978D+03
 Leave Link  502 at Fri Apr  4 11:53:30 2025, MaxMem=  1073741824 cpu:             161.0 elap:              20.3
 (Enter /opt/software/gaussian/g16_avx/g16/l601.exe)
 Copying SCF densities to generalized density rwf, IOpCl= 0 IROHF=0.

 **********************************************************************

            Population analysis using the SCF Density.

 **********************************************************************

 Orbital symmetries:
       Occupied  (AG) (AU) (AG) (AU) (AU) (AG) (AG) (AU) (AU) (AG)
                 (AG) (AU) (AG) (AU) (AU) (AG) (AG) (AU) (AG) (AU)
                 (AG) (AU) (AU) (AG) (AG) (AU) (AG) (AU) (AU) (AG)
                 (AU) (AG) (AG) (AG) (AU) (AU) (AU) (AG) (AU) (AG)
                 (AG) (AU) (AG) (AG) (AU) (AU) (AU) (AG) (AG) (AU)
                 (AU) (AG) (AU) (AG) (AG) (AG) (AU) (AU) (AG) (AU)
       Virtual   (AG) (AU) (AG) (AG) (AU) (AU) (AU) (AG) (AU) (AG)
                 (AG) (AG) (AU) (AU) (AG) (AG) (AU) (AU) (AU) (AG)
                 (AU) (AG) (AG) (AG) (AU) (AG) (AU) (AU) (AG) (AU)
                 (AG) (AG) (AU) (AU) (AU) (AG) (AU) (AU) (AU) (AG)
                 (AG) (AU) (AG) (AG) (AG) (AU) (AG) (AG) (AU) (AU)
                 (AG) (AU) (AG) (AU) (AG) (AU) (AU) (AU) (AG) (AG)
                 (AU) (AU) (AG) (AG) (AG) (AU) (AU) (AG) (AU) (AG)
                 (AG) (AU) (AU) (AU) (AG) (AG) (AG) (AU) (AG) (AU)
                 (AU) (AG) (AG) (AU) (AG) (AU) (AG) (AU) (AU) (AG)
                 (AU) (AG) (AU) (AG) (AG) (AG) (AU) (AU) (AG) (AU)
                 (AU) (AG) (AU) (AG) (AU) (AG) (AU) (AG) (AG) (AU)
                 (AG) (AU) (AU) (AG) (AG) (AG) (AU) (AU) (AG) (AU)
                 (AU) (AU) (AG) (AG) (AG) (AU) (AU) (AG) (AG) (AU)
                 (AU) (AU) (AG) (AU) (AG) (AG) (AU) (AG) (AU) (AG)
                 (AG) (AU) (AG) (AG) (AU) (AU) (AU) (AG) (AG) (AU)
                 (AG) (AU) (AU) (AG) (AU) (AG) (AG) (AU) (AU) (AG)
                 (AU) (AG) (AU) (AG) (AU) (AG) (AG) (AU) (AG) (AU)
                 (AU) (AG) (AG) (AU) (AG) (AU) (AU) (AG) (AG) (AU)
                 (AG) (AU) (AG) (AU) (AG) (AG) (AU) (AU) (AU) (AG)
                 (AG) (AU) (AG) (AU) (AG) (AU) (AG) (AG) (AU) (AU)
                 (AU) (AG) (AU) (AG) (AU) (AG) (AG) (AG) (AU) (AG)
                 (AU) (AU) (AU) (AG) (AU) (AG) (AG) (AU) (AG) (AU)
                 (AG) (AU) (AG) (AU) (AG) (AU) (AG) (AU) (AU) (AG)
                 (AG) (AU) (AG) (AU)
 The electronic state is 1-AG.
 Alpha  occ. eigenvalues --  -10.19344 -10.19343 -10.19342 -10.19307 -10.19146
 Alpha  occ. eigenvalues --  -10.19146 -10.19055 -10.19055 -10.18972 -10.18972
 Alpha  occ. eigenvalues --  -10.18774 -10.18774 -10.18558 -10.18558 -10.18530
 Alpha  occ. eigenvalues --  -10.18530 -10.18493 -10.18492  -0.88708  -0.86287
 Alpha  occ. eigenvalues --   -0.82512  -0.78816  -0.78763  -0.76496  -0.73925
 Alpha  occ. eigenvalues --   -0.73120  -0.69092  -0.65828  -0.61773  -0.61124
 Alpha  occ. eigenvalues --   -0.59737  -0.59722  -0.56101  -0.52627  -0.50397
 Alpha  occ. eigenvalues --   -0.49835  -0.49686  -0.45830  -0.45244  -0.44809
 Alpha  occ. eigenvalues --   -0.43775  -0.42196  -0.41751  -0.41000  -0.40476
 Alpha  occ. eigenvalues --   -0.40397  -0.39768  -0.37603  -0.36585  -0.36226
 Alpha  occ. eigenvalues --   -0.34197  -0.33446  -0.33208  -0.31623  -0.30170
 Alpha  occ. eigenvalues --   -0.28607  -0.27078  -0.23830  -0.22919  -0.17708
 Alpha virt. eigenvalues --   -0.07597  -0.01720  -0.00930   0.02248   0.04867
 Alpha virt. eigenvalues --    0.05096   0.10920   0.11460   0.11578   0.11673
 Alpha virt. eigenvalues --    0.13179   0.13844   0.15420   0.17249   0.17752
 Alpha virt. eigenvalues --    0.18176   0.18327   0.18613   0.19246   0.22791
 Alpha virt. eigenvalues --    0.23210   0.23277   0.26117   0.26604   0.26927
 Alpha virt. eigenvalues --    0.29703   0.29877   0.30886   0.31536   0.32926
 Alpha virt. eigenvalues --    0.35183   0.35906   0.36365   0.42885   0.45589
 Alpha virt. eigenvalues --    0.47755   0.48624   0.49529   0.50326   0.50868
 Alpha virt. eigenvalues --    0.52039   0.52227   0.52638   0.54254   0.54549
 Alpha virt. eigenvalues --    0.54552   0.55364   0.55576   0.55658   0.56811
 Alpha virt. eigenvalues --    0.57577   0.58239   0.58536   0.59131   0.59359
 Alpha virt. eigenvalues --    0.60183   0.60794   0.61633   0.61937   0.62117
 Alpha virt. eigenvalues --    0.62390   0.62682   0.62873   0.63786   0.64942
 Alpha virt. eigenvalues --    0.65271   0.65807   0.66610   0.67791   0.69314
 Alpha virt. eigenvalues --    0.72897   0.74883   0.75346   0.80778   0.80798
 Alpha virt. eigenvalues --    0.82561   0.84245   0.84351   0.84838   0.85685
 Alpha virt. eigenvalues --    0.86139   0.86698   0.87554   0.87892   0.88136
 Alpha virt. eigenvalues --    0.88289   0.91636   0.92829   0.93301   0.93654
 Alpha virt. eigenvalues --    0.94751   0.94843   0.95460   0.96674   0.99536
 Alpha virt. eigenvalues --    1.00580   1.00643   1.02256   1.02643   1.05602
 Alpha virt. eigenvalues --    1.06726   1.09020   1.09186   1.11181   1.13752
 Alpha virt. eigenvalues --    1.17540   1.18911   1.18949   1.20268   1.22084
 Alpha virt. eigenvalues --    1.22670   1.23226   1.24249   1.24923   1.30570
 Alpha virt. eigenvalues --    1.34321   1.35654   1.37325   1.37364   1.37602
 Alpha virt. eigenvalues --    1.41532   1.41970   1.42335   1.43070   1.44932
 Alpha virt. eigenvalues --    1.44996   1.46253   1.48286   1.49947   1.51184
 Alpha virt. eigenvalues --    1.51607   1.52049   1.55236   1.57033   1.57877
 Alpha virt. eigenvalues --    1.59069   1.61033   1.73166   1.74919   1.75154
 Alpha virt. eigenvalues --    1.75508   1.78128   1.82904   1.86036   1.86038
 Alpha virt. eigenvalues --    1.87260   1.87600   1.88967   1.90181   1.90757
 Alpha virt. eigenvalues --    1.92315   1.93037   1.95499   1.95685   1.96133
 Alpha virt. eigenvalues --    1.96568   1.99492   2.00243   2.01531   2.02306
 Alpha virt. eigenvalues --    2.02876   2.02981   2.05878   2.08049   2.11987
 Alpha virt. eigenvalues --    2.12089   2.15011   2.15957   2.17845   2.17892
 Alpha virt. eigenvalues --    2.20037   2.21747   2.24101   2.24977   2.25873
 Alpha virt. eigenvalues --    2.30043   2.30681   2.30818   2.31726   2.35909
 Alpha virt. eigenvalues --    2.37281   2.38574   2.39271   2.40150   2.42064
 Alpha virt. eigenvalues --    2.43037   2.43807   2.52415   2.57408   2.60460
 Alpha virt. eigenvalues --    2.61668   2.64317   2.65854   2.67767   2.67936
 Alpha virt. eigenvalues --    2.69037   2.69981   2.71620   2.73921   2.75882
 Alpha virt. eigenvalues --    2.79838   2.82272   2.83901   2.84065   2.85971
 Alpha virt. eigenvalues --    2.90517   2.91050   2.95987   2.98598   3.07455
 Alpha virt. eigenvalues --    3.09955   3.13482   3.28730   3.38508   3.48975
 Alpha virt. eigenvalues --    3.54749   4.08009   4.08026   4.10438   4.12267
 Alpha virt. eigenvalues --    4.12565   4.12628   4.13012   4.14684   4.18735
 Alpha virt. eigenvalues --    4.22630   4.29726   4.36430   4.38309   4.42372
 Alpha virt. eigenvalues --    4.45137   4.56951   4.75076   4.90438
          Condensed to atoms (all electrons):
               1          2          3          4          5          6
     1  C    4.901978   0.550086  -0.002068   0.008724  -0.000312   0.000003
     2  C    0.550086   5.049208   0.424768  -0.083397   0.006271  -0.000274
     3  C   -0.002068   0.424768   4.727448   0.409595   0.015169   0.008870
     4  C    0.008724  -0.083397   0.409595   5.464623   0.382310  -0.087903
     5  C   -0.000312   0.006271   0.015169   0.382310   4.771663   0.379791
     6  C    0.000003  -0.000274   0.008870  -0.087903   0.379791   5.467831
     7  C   -0.035664  -0.032459   0.463165  -0.029456  -0.034178  -0.000132
     8  C   -0.016818  -0.059135  -0.034456   0.016260   0.000018  -0.000010
     9  C    0.459558  -0.021406  -0.034718  -0.000326   0.000020   0.000000
    10  H    0.362031  -0.041091   0.003748  -0.000305   0.000005  -0.000000
    11  H   -0.048770   0.358013  -0.042020  -0.009804   0.000233  -0.000001
    12  H    0.000235  -0.009373  -0.042733   0.346549  -0.042105  -0.008713
    13  H    0.000000  -0.000004  -0.000024  -0.008509  -0.041400   0.342813
    14  H    0.004306   0.000577   0.005783  -0.000264   0.000016   0.000000
    15  H   -0.043693   0.004108   0.000906   0.000013  -0.000001  -0.000000
    16  C    0.000018   0.000183  -0.036945  -0.016991   0.440246  -0.023224
    17  C   -0.000000   0.000001  -0.000192   0.006563   0.007096   0.418217
    18  C   -0.000516   0.013644  -0.017714  -0.119981  -0.023224   0.022486
    19  C    0.000000  -0.000000  -0.000364   0.015651  -0.016991  -0.119981
    20  C   -0.000000   0.000000   0.000001  -0.000364  -0.036945  -0.017714
    21  C    0.000000  -0.000000   0.000001  -0.000232   0.007928  -0.078318
    22  H    0.000017  -0.000191   0.004742   0.000701   0.004927  -0.000295
    23  H   -0.000000   0.000000   0.000018  -0.000176   0.004672   0.000515
    24  C   -0.000000   0.000000   0.000000  -0.000000   0.000183   0.013644
    25  C   -0.000000   0.000000  -0.000000   0.000002  -0.000287   0.006642
    26  H    0.000000  -0.000000  -0.000000  -0.000005   0.000216  -0.010020
    27  C    0.000000  -0.000000  -0.000000   0.000000   0.000018  -0.000516
    28  H    0.000000   0.000000   0.000000  -0.000000   0.000003  -0.000180
    29  H    0.000000  -0.000000  -0.000000  -0.000000   0.000004  -0.000204
    30  H   -0.000000   0.000000   0.000000   0.000000  -0.000001   0.000012
               7          8          9         10         11         12
     1  C   -0.035664  -0.016818   0.459558   0.362031  -0.048770   0.000235
     2  C   -0.032459  -0.059135  -0.021406  -0.041091   0.358013  -0.009373
     3  C    0.463165  -0.034456  -0.034718   0.003748  -0.042020  -0.042733
     4  C   -0.029456   0.016260  -0.000326  -0.000305  -0.009804   0.346549
     5  C   -0.034178   0.000018   0.000020   0.000005   0.000233  -0.042105
     6  C   -0.000132  -0.000010   0.000000  -0.000000  -0.000001  -0.008713
     7  C    4.742132   0.431364  -0.008558   0.001085   0.005511   0.004627
     8  C    0.431364   5.075768   0.530098   0.004483   0.000299  -0.000218
     9  C   -0.008558   0.530098   4.929342  -0.046865   0.004638   0.000019
    10  H    0.001085   0.004483  -0.046865   0.602186  -0.006452  -0.000020
    11  H    0.005511   0.000299   0.004638  -0.006452   0.603018   0.006842
    12  H    0.004627  -0.000218   0.000019  -0.000020   0.006842   0.607223
    13  H    0.000035   0.000000  -0.000000  -0.000000   0.000003   0.007529
    14  H   -0.040686   0.355465  -0.047416  -0.000187   0.000020   0.000003
    15  H    0.002988  -0.039030   0.365872  -0.004802  -0.000169  -0.000000
    16  C    0.007096   0.007928  -0.000287  -0.000001   0.000003   0.004672
    17  C   -0.000030   0.000000  -0.000000  -0.000000  -0.000000   0.000026
    18  C    0.418217  -0.078318   0.006642   0.000012  -0.000180   0.000515
    19  C    0.006563  -0.000232   0.000002   0.000000  -0.000000  -0.000176
    20  C   -0.000192   0.000001  -0.000000   0.000000   0.000000   0.000018
    21  C    0.000000   0.000000  -0.000000  -0.000000   0.000000  -0.000001
    22  H   -0.042293  -0.009484   0.000188  -0.000000   0.000003   0.000029
    23  H    0.000026  -0.000001   0.000000  -0.000000   0.000000   0.000003
    24  C    0.000001  -0.000000   0.000000   0.000000   0.000000   0.000000
    25  C   -0.000000  -0.000000   0.000000   0.000000   0.000000   0.000000
    26  H   -0.000000   0.000000   0.000000  -0.000000  -0.000000   0.000003
    27  C   -0.000000   0.000000  -0.000000  -0.000000   0.000000  -0.000000
    28  H   -0.000000   0.000000   0.000000   0.000000  -0.000000   0.000000
    29  H    0.000000   0.000000  -0.000000  -0.000000  -0.000000   0.000000
    30  H   -0.000000  -0.000000   0.000000   0.000000   0.000000  -0.000000
              13         14         15         16         17         18
     1  C    0.000000   0.004306  -0.043693   0.000018  -0.000000  -0.000516
     2  C   -0.000004   0.000577   0.004108   0.000183   0.000001   0.013644
     3  C   -0.000024   0.005783   0.000906  -0.036945  -0.000192  -0.017714
     4  C   -0.008509  -0.000264   0.000013  -0.016991   0.006563  -0.119981
     5  C   -0.041400   0.000016  -0.000001   0.440246   0.007096  -0.023224
     6  C    0.342813   0.000000  -0.000000  -0.023224   0.418217   0.022486
     7  C    0.000035  -0.040686   0.002988   0.007096  -0.000030   0.418217
     8  C    0.000000   0.355465  -0.039030   0.007928   0.000000  -0.078318
     9  C   -0.000000  -0.047416   0.365872  -0.000287  -0.000000   0.006642
    10  H   -0.000000  -0.000187  -0.004802  -0.000001  -0.000000   0.000012
    11  H    0.000003   0.000020  -0.000169   0.000003  -0.000000  -0.000180
    12  H    0.007529   0.000003  -0.000000   0.004672   0.000026   0.000515
    13  H    0.610188   0.000000  -0.000000   0.004927  -0.042293  -0.000295
    14  H    0.000000   0.601825  -0.004806   0.000216  -0.000000  -0.010020
    15  H   -0.000000  -0.004806   0.586583   0.000004   0.000000  -0.000204
    16  C    0.004927   0.000216   0.000004   4.771663  -0.034178   0.379791
    17  C   -0.042293  -0.000000   0.000000  -0.034178   4.742132  -0.000132
    18  C   -0.000295  -0.010020  -0.000204   0.379791  -0.000132   5.467831
    19  C    0.000701  -0.000005  -0.000000   0.382310  -0.029456  -0.087903
    20  C    0.004742  -0.000000  -0.000000   0.015169   0.463165   0.008870
    21  C   -0.009484   0.000000   0.000000   0.000018   0.431364  -0.000010
    22  H    0.000004   0.007475  -0.000014  -0.041400   0.000035   0.342813
    23  H    0.000029   0.000003   0.000000  -0.042105   0.004627  -0.008713
    24  C   -0.000191  -0.000000  -0.000000   0.006271  -0.032459  -0.000274
    25  C    0.000188   0.000000  -0.000000   0.000020  -0.008558   0.000000
    26  H    0.007475  -0.000000   0.000000   0.000016  -0.040686   0.000000
    27  C    0.000017   0.000000   0.000000  -0.000312  -0.035664   0.000003
    28  H    0.000003  -0.000000  -0.000000   0.000233   0.005511  -0.000001
    29  H   -0.000014   0.000000  -0.000000  -0.000001   0.002988  -0.000000
    30  H   -0.000000  -0.000000  -0.000000   0.000005   0.001085  -0.000000
              19         20         21         22         23         24
     1  C    0.000000  -0.000000   0.000000   0.000017  -0.000000  -0.000000
     2  C   -0.000000   0.000000  -0.000000  -0.000191   0.000000   0.000000
     3  C   -0.000364   0.000001   0.000001   0.004742   0.000018   0.000000
     4  C    0.015651  -0.000364  -0.000232   0.000701  -0.000176  -0.000000
     5  C   -0.016991  -0.036945   0.007928   0.004927   0.004672   0.000183
     6  C   -0.119981  -0.017714  -0.078318  -0.000295   0.000515   0.013644
     7  C    0.006563  -0.000192   0.000000  -0.042293   0.000026   0.000001
     8  C   -0.000232   0.000001   0.000000  -0.009484  -0.000001  -0.000000
     9  C    0.000002  -0.000000  -0.000000   0.000188   0.000000   0.000000
    10  H    0.000000   0.000000  -0.000000  -0.000000  -0.000000   0.000000
    11  H   -0.000000   0.000000   0.000000   0.000003   0.000000   0.000000
    12  H   -0.000176   0.000018  -0.000001   0.000029   0.000003   0.000000
    13  H    0.000701   0.004742  -0.009484   0.000004   0.000029  -0.000191
    14  H   -0.000005  -0.000000   0.000000   0.007475   0.000003  -0.000000
    15  H   -0.000000  -0.000000   0.000000  -0.000014   0.000000  -0.000000
    16  C    0.382310   0.015169   0.000018  -0.041400  -0.042105   0.006271
    17  C   -0.029456   0.463165   0.431364   0.000035   0.004627  -0.032459
    18  C   -0.087903   0.008870  -0.000010   0.342813  -0.008713  -0.000274
    19  C    5.464623   0.409595   0.016260  -0.008509   0.346549  -0.083397
    20  C    0.409595   4.727448  -0.034456  -0.000024  -0.042733   0.424768
    21  C    0.016260  -0.034456   5.075768   0.000000  -0.000218  -0.059135
    22  H   -0.008509  -0.000024   0.000000   0.610188   0.007529  -0.000004
    23  H    0.346549  -0.042733  -0.000218   0.007529   0.607223  -0.009373
    24  C   -0.083397   0.424768  -0.059135  -0.000004  -0.009373   5.049208
    25  C   -0.000326  -0.034718   0.530098  -0.000000   0.000019  -0.021406
    26  H   -0.000264   0.005783   0.355465   0.000000   0.000003   0.000577
    27  C    0.008724  -0.002068  -0.016818   0.000000   0.000235   0.550086
    28  H   -0.009804  -0.042020   0.000299   0.000003   0.006842   0.358013
    29  H    0.000013   0.000906  -0.039030  -0.000000  -0.000000   0.004108
    30  H   -0.000305   0.003748   0.004483  -0.000000  -0.000020  -0.041091
              25         26         27         28         29         30
     1  C   -0.000000   0.000000   0.000000   0.000000   0.000000  -0.000000
     2  C    0.000000  -0.000000  -0.000000   0.000000  -0.000000   0.000000
     3  C   -0.000000  -0.000000  -0.000000   0.000000  -0.000000   0.000000
     4  C    0.000002  -0.000005   0.000000  -0.000000  -0.000000   0.000000
     5  C   -0.000287   0.000216   0.000018   0.000003   0.000004  -0.000001
     6  C    0.006642  -0.010020  -0.000516  -0.000180  -0.000204   0.000012
     7  C   -0.000000  -0.000000  -0.000000  -0.000000   0.000000  -0.000000
     8  C   -0.000000   0.000000   0.000000   0.000000   0.000000  -0.000000
     9  C    0.000000   0.000000  -0.000000   0.000000  -0.000000   0.000000
    10  H    0.000000  -0.000000  -0.000000   0.000000  -0.000000   0.000000
    11  H    0.000000  -0.000000   0.000000  -0.000000  -0.000000   0.000000
    12  H    0.000000   0.000003  -0.000000   0.000000   0.000000  -0.000000
    13  H    0.000188   0.007475   0.000017   0.000003  -0.000014  -0.000000
    14  H    0.000000  -0.000000   0.000000  -0.000000   0.000000  -0.000000
    15  H   -0.000000   0.000000   0.000000  -0.000000  -0.000000  -0.000000
    16  C    0.000020   0.000016  -0.000312   0.000233  -0.000001   0.000005
    17  C   -0.008558  -0.040686  -0.035664   0.005511   0.002988   0.001085
    18  C    0.000000   0.000000   0.000003  -0.000001  -0.000000  -0.000000
    19  C   -0.000326  -0.000264   0.008724  -0.009804   0.000013  -0.000305
    20  C   -0.034718   0.005783  -0.002068  -0.042020   0.000906   0.003748
    21  C    0.530098   0.355465  -0.016818   0.000299  -0.039030   0.004483
    22  H   -0.000000   0.000000   0.000000   0.000003  -0.000000  -0.000000
    23  H    0.000019   0.000003   0.000235   0.006842  -0.000000  -0.000020
    24  C   -0.021406   0.000577   0.550086   0.358013   0.004108  -0.041091
    25  C    4.929342  -0.047416   0.459558   0.004638   0.365872  -0.046865
    26  H   -0.047416   0.601825   0.004306   0.000020  -0.004806  -0.000187
    27  C    0.459558   0.004306   4.901978  -0.048770  -0.043693   0.362031
    28  H    0.004638   0.000020  -0.048770   0.603018  -0.000169  -0.006452
    29  H    0.365872  -0.004806  -0.043693  -0.000169   0.586583  -0.004802
    30  H   -0.046865  -0.000187   0.362031  -0.006452  -0.004802   0.602186
 Mulliken charges:
               1
     1  C   -0.139114
     2  C   -0.159529
     3  C    0.147021
     4  C   -0.293276
     5  C    0.174654
     6  C   -0.313338
     7  C    0.140836
     8  C   -0.183984
     9  C   -0.136802
    10  H    0.126173
    11  H    0.128813
    12  H    0.125046
    13  H    0.123561
    14  H    0.127695
    15  H    0.132244
    16  C    0.174654
    17  C    0.140836
    18  C   -0.313338
    19  C   -0.293276
    20  C    0.147021
    21  C   -0.183984
    22  H    0.123561
    23  H    0.125046
    24  C   -0.159529
    25  C   -0.136802
    26  H    0.127695
    27  C   -0.139114
    28  H    0.128813
    29  H    0.132244
    30  H    0.126173
 Sum of Mulliken charges =  -0.00000
 Mulliken charges with hydrogens summed into heavy atoms:
               1
     1  C   -0.012941
     2  C   -0.030716
     3  C    0.147021
     4  C   -0.168231
     5  C    0.174654
     6  C   -0.189778
     7  C    0.140836
     8  C   -0.056289
     9  C   -0.004558
    16  C    0.174654
    17  C    0.140836
    18  C   -0.189778
    19  C   -0.168231
    20  C    0.147021
    21  C   -0.056289
    24  C   -0.030716
    25  C   -0.004558
    27  C   -0.012941
 Electronic spatial extent (au):  <R**2>=           5397.1655
 Charge=             -0.0000 electrons
 Dipole moment (field-independent basis, Debye):
    X=              0.0000    Y=             -0.0000    Z=              0.0000  Tot=              0.0000
 Quadrupole moment (field-independent basis, Debye-Ang):
   XX=           -104.7093   YY=            -93.5439   ZZ=            -89.0687
   XY=              7.6098   XZ=             -2.4486   YZ=              0.7234
 Traceless Quadrupole moment (field-independent basis, Debye-Ang):
   XX=             -8.9353   YY=              2.2301   ZZ=              6.7053
   XY=              7.6098   XZ=             -2.4486   YZ=              0.7234
 Octapole moment (field-independent basis, Debye-Ang**2):
  XXX=              0.0000  YYY=             -0.0000  ZZZ=             -0.0000  XYY=              0.0000
  XXY=              0.0000  XXZ=             -0.0000  XZZ=             -0.0000  YZZ=              0.0000
  YYZ=             -0.0000  XYZ=             -0.0000
 Hexadecapole moment (field-independent basis, Debye-Ang**3):
 XXXX=           -816.2466 YYYY=          -1041.4395 ZZZZ=          -5058.0744 XXXY=           -367.0588
 XXXZ=            808.9647 YYYX=           -309.2640 YYYZ=            557.5349 ZZZX=            621.6740
 ZZZY=            542.8171 XXYY=           -278.1360 XXZZ=          -1076.6037 YYZZ=          -1051.9403
 XXYZ=            161.1310 YYXZ=            210.8705 ZZXY=            -29.8198
 N-N= 1.118609006734D+03 E-N=-3.842467200990D+03  KE= 6.871957770441D+02
 Symmetry AG   KE= 3.441058353988D+02
 Symmetry AU   KE= 3.430899416453D+02
 No NMR shielding tensors so no spin-rotation constants.
 Leave Link  601 at Fri Apr  4 11:53:30 2025, MaxMem=  1073741824 cpu:               1.7 elap:               0.2
 (Enter /opt/software/gaussian/g16_avx/g16/l9999.exe)
 Unable to Open any file for archive entry.
 1\1\GINC-WEE14\SP\RB3LYP\6-31G(d)\C18H12\DKB18196\04-Apr-2025\0\\#p B3
 LYP/6-31G(d) SP\\Molecule_TETCEN\\0,1\C,0,-1.1172,-0.6098,4.7694\C,0,-
 0.4746,0.2717,3.9467\C,0,-0.4185,0.0114,2.5012\C,0,0.2133,0.8599,1.667
 5\C,0,0.2988,0.6114,0.2587\C,0,0.9076,1.448,-0.6327\C,0,-0.9548,-1.185
 9,2.0071\C,0,-1.6568,-2.082,2.8874\C,0,-1.7168,-1.8267,4.2704\H,0,-1.1
 39,-0.3757,5.7626\H,0,-0.062,1.1818,4.279\H,0,0.6487,1.787,2.023\H,0,1
 .3268,2.3805,-0.2697\H,0,-1.9925,-2.9775,2.4767\H,0,-2.1537,-2.5107,4.
 9043\C,0,-0.2988,-0.6114,-0.2587\C,0,0.9548,1.1859,-2.0071\C,0,-0.9076
 ,-1.448,0.6327\C,0,-0.2133,-0.8599,-1.6675\C,0,0.4185,-0.0114,-2.5012\
 C,0,1.6568,2.082,-2.8874\H,0,-1.3268,-2.3805,0.2697\H,0,-0.6487,-1.787
 ,-2.023\C,0,0.4746,-0.2717,-3.9467\C,0,1.7168,1.8267,-4.2704\H,0,1.992
 5,2.9775,-2.4767\C,0,1.1172,0.6098,-4.7694\H,0,0.062,-1.1818,-4.279\H,
 0,2.1537,2.5107,-4.9043\H,0,1.139,0.3757,-5.7626\\Version=ES64L-G16Rev
 C.01\State=1-AG\HF=-693.1298372\RMSD=9.384e-09\Dipole=0.,0.,0.\Quadrup
 ole=-6.6432055,1.6580131,4.9851923,5.657722,-1.8204814,0.537854\PG=CI 
 [X(C18H12)]\\@
 The archive entry for this job was punched.


 TERENCE, THIS IS STUPID STUFF:
 YOU EAT YOUR VICTUALS FAST ENOUGH;
 THERE CAN'T BE MUCH AMISS, 'TIS CLEAR
 TO SEE THE RATE YOU DRINK YOUR BEER.
 BUT OH, GOOD LORD, THE VERSE YOU MAKE,
 IT GIVES A CHAP THE BELLY-ACHE.
 THE COW, THE OLD COW, SHE IS DEAD;
 IT SLEEPS WELL, THE HORNED HEAD:
 WE POOR LADS, 'TIS OUR TURN NOW
 TO HEAR SUCH TUNES AS KILLED THE COW.
 PRETTY FRIENDSHIP 'TIS TO RHYME
 YOUR FRIENDS TO DEATH BEFORE THEIR TIME.
 MOPING, MELANCHOLY MAD:
 COME PIPE A TUNE TO DANCE TO, LAD.

     -- A. E. HOUSMAN
 Job cpu time:       0 days  0 hours  3 minutes  0.7 seconds.
 Elapsed time:       0 days  0 hours  0 minutes 22.9 seconds.
 File lengths (MBytes):  RWF=    112 Int=      0 D2E=      0 Chk=     12 Scr=      8
 Normal termination of Gaussian 16 at Fri Apr  4 11:53:30 2025.
