 Entering Gaussian System, Link 0=g16
 Input=Molecule_PENCEN_SP8.com
 Output=Molecule_PENCEN_SP8.log
 Initial command:
 /opt/software/gaussian/g16_avx/g16/l1.exe "/users/dkb18196/GAUSSTMP/Gau-3380624.inp" -scrdir="/users/dkb18196/GAUSSTMP/"
 Entering Link 1 = /opt/software/gaussian/g16_avx/g16/l1.exe PID=   3380625.
  
 Copyright (c) 1988-2019, Gaussian, Inc.  All Rights Reserved.
  
 This is part of the Gaussian(R) 16 program.  It is based on
 the Gaussian(R) 09 system (copyright 2009, Gaussian, Inc.),
 the Gaussian(R) 03 system (copyright 2003, Gaussian, Inc.),
 the Gaussian(R) 98 system (copyright 1998, Gaussian, Inc.),
 the Gaussian(R) 94 system (copyright 1995, Gaussian, Inc.),
 the Gaussian 92(TM) system (copyright 1992, Gaussian, Inc.),
 the Gaussian 90(TM) system (copyright 1990, Gaussian, Inc.),
 the Gaussian 88(TM) system (copyright 1988, Gaussian, Inc.),
 the Gaussian 86(TM) system (copyright 1986, Carnegie Mellon
 University), and the Gaussian 82(TM) system (copyright 1983,
 Carnegie Mellon University). Gaussian is a federally registered
 trademark of Gaussian, Inc.
  
 This software contains proprietary and confidential information,
 including trade secrets, belonging to Gaussian, Inc.
  
 This software is provided under written license and may be
 used, copied, transmitted, or stored only in accord with that
 written license.
  
 The following legend is applicable only to US Government
 contracts under FAR:
  
                    RESTRICTED RIGHTS LEGEND
  
 Use, reproduction and disclosure by the US Government is
 subject to restrictions as set forth in subparagraphs (a)
 and (c) of the Commercial Computer Software - Restricted
 Rights clause in FAR 52.227-19.
  
 Gaussian, Inc.
 340 Quinnipiac St., Bldg. 40, Wallingford CT 06492
  
  
 ---------------------------------------------------------------
 Warning -- This program may not be used in any manner that
 competes with the business of Gaussian, Inc. or will provide
 assistance to any competitor of Gaussian, Inc.  The licensee
 of this program is prohibited from giving any competitor of
 Gaussian, Inc. access to this program.  By using this program,
 the user acknowledges that Gaussian, Inc. is engaged in the
 business of creating and licensing software in the field of
 computational chemistry and represents and warrants to the
 licensee that it is not a competitor of Gaussian, Inc. and that
 it will not use this program in any manner prohibited above.
 ---------------------------------------------------------------
  

 Cite this work as:
 Gaussian 16, Revision C.01,
 M. J. Frisch, G. W. Trucks, H. B. Schlegel, G. E. Scuseria, 
 M. A. Robb, J. R. Cheeseman, G. Scalmani, V. Barone, 
 G. A. Petersson, H. Nakatsuji, X. Li, M. Caricato, A. V. Marenich, 
 J. Bloino, B. G. Janesko, R. Gomperts, B. Mennucci, H. P. Hratchian, 
 J. V. Ortiz, A. F. Izmaylov, J. L. Sonnenberg, D. Williams-Young, 
 F. Ding, F. Lipparini, F. Egidi, J. Goings, B. Peng, A. Petrone, 
 T. Henderson, D. Ranasinghe, V. G. Zakrzewski, J. Gao, N. Rega, 
 G. Zheng, W. Liang, M. Hada, M. Ehara, K. Toyota, R. Fukuda, 
 J. Hasegawa, M. Ishida, T. Nakajima, Y. Honda, O. Kitao, H. Nakai, 
 T. Vreven, K. Throssell, J. A. Montgomery, Jr., J. E. Peralta, 
 F. Ogliaro, M. J. Bearpark, J. J. Heyd, E. N. Brothers, K. N. Kudin, 
 V. N. Staroverov, T. A. Keith, R. Kobayashi, J. Normand, 
 K. Raghavachari, A. P. Rendell, J. C. Burant, S. S. Iyengar, 
 J. Tomasi, M. Cossi, J. M. Millam, M. Klene, C. Adamo, R. Cammi, 
 J. W. Ochterski, R. L. Martin, K. Morokuma, O. Farkas, 
 J. B. Foresman, and D. J. Fox, Gaussian, Inc., Wallingford CT, 2019.
 
 ******************************************
 Gaussian 16:  ES64L-G16RevC.01  3-Jul-2019
                 4-Apr-2025 
 ******************************************
 %nproc=8
 Will use up to    8 processors via shared memory.
 %mem=18GB
 %chk=Molecule_PENCEN8.chk
 --------------------
 #p B3LYP/6-31G(d) SP
 --------------------
 1/38=1,172=1/1;
 2/12=2,17=6,18=5,40=1/2;
 3/5=1,6=6,7=1,11=2,25=1,30=1,74=-5/1,2,3;
 4//1;
 5/5=2,38=5/2;
 6/7=2,8=2,9=2,10=2,28=1/1;
 99/5=1,9=1/99;
 Leave Link    1 at Fri Apr  4 11:58:50 2025, MaxMem=  2415919104 cpu:               1.9 elap:               0.3
 (Enter /opt/software/gaussian/g16_avx/g16/l101.exe)
 ---------------
 Molecule_PENCEN
 ---------------
 Symbolic Z-matrix:
 Charge =  0 Multiplicity = 1
 C                    -1.3242   -1.0531    5.9036 
 C                    -1.9511   -2.3883    4.0401 
 C                    -1.95     -2.1472    5.3743 
 C                    -0.7389   -0.1753    5.0625 
 C                    -0.7026   -0.3518    3.637 
 C                    -0.0856    0.4558    2.7466 
 C                    -0.0904    0.3032    1.3776 
 C                     0.6176    1.1704    0.4858 
 C                    -0.5826   -0.9036    0.8222 
 C                    -1.2835   -1.7553    1.7764 
 C                    -1.271    -1.5305    3.1164 
 H                    -1.3311   -0.8519    6.9898 
 H                    -2.4053   -3.2981    3.6399 
 H                    -2.4441   -2.8444    6.0907 
 H                    -0.2026    0.7192    5.3656 
 H                     0.397     1.3169    3.1613 
 H                     1.0652    2.0135    0.8846 
 H                    -1.7421   -2.6674    1.4212 
 C                     0.5826    0.9036   -0.8222 
 C                    -0.6176   -1.1704   -0.4858 
 C                     0.0904   -0.3032   -1.3776 
 C                     1.2835    1.7553   -1.7764 
 H                    -1.0652   -2.0135   -0.8846 
 C                     0.0856   -0.4558   -2.7466 
 C                     1.271     1.5305   -3.1164 
 H                     1.7421    2.6674   -1.4212 
 C                     0.7026    0.3518   -3.637 
 H                    -0.397    -1.3169   -3.1613 
 C                     1.9511    2.3883   -4.0401 
 C                     0.7389    0.1753   -5.0625 
 C                     1.95      2.1472   -5.3743 
 H                     2.4053    3.2981   -3.6399 
 C                     1.3242    1.0531   -5.9036 
 H                     0.2026   -0.7192   -5.3656 
 H                     2.4441    2.8444   -6.0907 
 H                     1.3311    0.8519   -6.9898 
 
 ITRead=  0  0  0  0  0  0  0  0  0  0  0  0  0  0  0  0  0  0  0  0
 ITRead=  0  0  0  0  0  0  0  0  0  0  0  0  0  0  0  0
 MicOpt= -1 -1 -1 -1 -1 -1 -1 -1 -1 -1 -1 -1 -1 -1 -1 -1 -1 -1 -1 -1
 MicOpt= -1 -1 -1 -1 -1 -1 -1 -1 -1 -1 -1 -1 -1 -1 -1 -1
 NAtoms=     36 NQM=       36 NQMF=       0 NMMI=      0 NMMIF=      0
                NMic=       0 NMicF=      0.
                    Isotopes and Nuclear Properties:
 (Nuclear quadrupole moments (NQMom) in fm**2, nuclear magnetic moments (NMagM)
  in nuclear magnetons)

  Atom         1           2           3           4           5           6           7           8           9          10
 IAtWgt=          12          12          12          12          12          12          12          12          12          12
 AtmWgt=  12.0000000  12.0000000  12.0000000  12.0000000  12.0000000  12.0000000  12.0000000  12.0000000  12.0000000  12.0000000
 NucSpn=           0           0           0           0           0           0           0           0           0           0
 AtZEff=  -0.0000000  -0.0000000  -0.0000000  -0.0000000  -0.0000000  -0.0000000  -0.0000000  -0.0000000  -0.0000000  -0.0000000
 NQMom=    0.0000000   0.0000000   0.0000000   0.0000000   0.0000000   0.0000000   0.0000000   0.0000000   0.0000000   0.0000000
 NMagM=    0.0000000   0.0000000   0.0000000   0.0000000   0.0000000   0.0000000   0.0000000   0.0000000   0.0000000   0.0000000
 AtZNuc=   6.0000000   6.0000000   6.0000000   6.0000000   6.0000000   6.0000000   6.0000000   6.0000000   6.0000000   6.0000000

  Atom        11          12          13          14          15          16          17          18          19          20
 IAtWgt=          12           1           1           1           1           1           1           1          12          12
 AtmWgt=  12.0000000   1.0078250   1.0078250   1.0078250   1.0078250   1.0078250   1.0078250   1.0078250  12.0000000  12.0000000
 NucSpn=           0           1           1           1           1           1           1           1           0           0
 AtZEff=  -0.0000000  -0.0000000  -0.0000000  -0.0000000  -0.0000000  -0.0000000  -0.0000000  -0.0000000  -0.0000000  -0.0000000
 NQMom=    0.0000000   0.0000000   0.0000000   0.0000000   0.0000000   0.0000000   0.0000000   0.0000000   0.0000000   0.0000000
 NMagM=    0.0000000   2.7928460   2.7928460   2.7928460   2.7928460   2.7928460   2.7928460   2.7928460   0.0000000   0.0000000
 AtZNuc=   6.0000000   1.0000000   1.0000000   1.0000000   1.0000000   1.0000000   1.0000000   1.0000000   6.0000000   6.0000000

  Atom        21          22          23          24          25          26          27          28          29          30
 IAtWgt=          12          12           1          12          12           1          12           1          12          12
 AtmWgt=  12.0000000  12.0000000   1.0078250  12.0000000  12.0000000   1.0078250  12.0000000   1.0078250  12.0000000  12.0000000
 NucSpn=           0           0           1           0           0           1           0           1           0           0
 AtZEff=  -0.0000000  -0.0000000  -0.0000000  -0.0000000  -0.0000000  -0.0000000  -0.0000000  -0.0000000  -0.0000000  -0.0000000
 NQMom=    0.0000000   0.0000000   0.0000000   0.0000000   0.0000000   0.0000000   0.0000000   0.0000000   0.0000000   0.0000000
 NMagM=    0.0000000   0.0000000   2.7928460   0.0000000   0.0000000   2.7928460   0.0000000   2.7928460   0.0000000   0.0000000
 AtZNuc=   6.0000000   6.0000000   1.0000000   6.0000000   6.0000000   1.0000000   6.0000000   1.0000000   6.0000000   6.0000000

  Atom        31          32          33          34          35          36
 IAtWgt=          12           1          12           1           1           1
 AtmWgt=  12.0000000   1.0078250  12.0000000   1.0078250   1.0078250   1.0078250
 NucSpn=           0           1           0           1           1           1
 AtZEff=  -0.0000000  -0.0000000  -0.0000000  -0.0000000  -0.0000000  -0.0000000
 NQMom=    0.0000000   0.0000000   0.0000000   0.0000000   0.0000000   0.0000000
 NMagM=    0.0000000   2.7928460   0.0000000   2.7928460   2.7928460   2.7928460
 AtZNuc=   6.0000000   1.0000000   6.0000000   1.0000000   1.0000000   1.0000000
 Leave Link  101 at Fri Apr  4 11:58:51 2025, MaxMem=  2415919104 cpu:               0.9 elap:               0.1
 (Enter /opt/software/gaussian/g16_avx/g16/l202.exe)
                          Input orientation:                          
 ---------------------------------------------------------------------
 Center     Atomic      Atomic             Coordinates (Angstroms)
 Number     Number       Type             X           Y           Z
 ---------------------------------------------------------------------
      1          6           0       -1.324200   -1.053100    5.903600
      2          6           0       -1.951100   -2.388300    4.040100
      3          6           0       -1.950000   -2.147200    5.374300
      4          6           0       -0.738900   -0.175300    5.062500
      5          6           0       -0.702600   -0.351800    3.637000
      6          6           0       -0.085600    0.455800    2.746600
      7          6           0       -0.090400    0.303200    1.377600
      8          6           0        0.617600    1.170400    0.485800
      9          6           0       -0.582600   -0.903600    0.822200
     10          6           0       -1.283500   -1.755300    1.776400
     11          6           0       -1.271000   -1.530500    3.116400
     12          1           0       -1.331100   -0.851900    6.989800
     13          1           0       -2.405300   -3.298100    3.639900
     14          1           0       -2.444100   -2.844400    6.090700
     15          1           0       -0.202600    0.719200    5.365600
     16          1           0        0.397000    1.316900    3.161300
     17          1           0        1.065200    2.013500    0.884600
     18          1           0       -1.742100   -2.667400    1.421200
     19          6           0        0.582600    0.903600   -0.822200
     20          6           0       -0.617600   -1.170400   -0.485800
     21          6           0        0.090400   -0.303200   -1.377600
     22          6           0        1.283500    1.755300   -1.776400
     23          1           0       -1.065200   -2.013500   -0.884600
     24          6           0        0.085600   -0.455800   -2.746600
     25          6           0        1.271000    1.530500   -3.116400
     26          1           0        1.742100    2.667400   -1.421200
     27          6           0        0.702600    0.351800   -3.637000
     28          1           0       -0.397000   -1.316900   -3.161300
     29          6           0        1.951100    2.388300   -4.040100
     30          6           0        0.738900    0.175300   -5.062500
     31          6           0        1.950000    2.147200   -5.374300
     32          1           0        2.405300    3.298100   -3.639900
     33          6           0        1.324200    1.053100   -5.903600
     34          1           0        0.202600   -0.719200   -5.365600
     35          1           0        2.444100    2.844400   -6.090700
     36          1           0        1.331100    0.851900   -6.989800
 ---------------------------------------------------------------------
                    Distance matrix (angstroms):
                    1          2          3          4          5
     1  C    0.000000
     2  C    2.376635   0.000000
     3  C    1.367055   1.355810   0.000000
     4  C    1.349281   2.722517   2.335031   0.000000
     5  C    2.452689   2.422514   2.792432   1.436844   0.000000
     6  C    3.711813   3.638975   4.142029   2.487666   1.351192
     7  C    4.883287   4.218446   5.043430   3.772002   2.430782
     8  C    6.169854   5.647620   6.441776   4.959555   3.740332
     9  C    5.137407   3.798948   4.913038   4.305229   2.870885
    10  C    4.186708   2.443505   3.680040   3.686657   2.401893
    11  C    2.828290   1.432333   2.437103   2.430433   1.408345
    12  H    1.104699   3.383143   2.161176   2.126728   3.447663
    13  H    3.366473   1.092792   2.130730   3.814782   3.402922
    14  H    2.120834   2.157785   1.115102   3.330015   3.907240
    15  H    2.165289   3.804045   3.357042   1.086102   2.094063
    16  H    4.012436   4.473742   4.733473   2.670485   2.054257
    17  H    6.348514   6.199281   6.823508   5.049799   4.036764
    18  H    4.782522   2.642010   3.992597   4.525046   3.369322
    19  C    7.259542   6.395170   7.356498   6.126996   4.807518
    20  C    6.429423   4.872912   6.088530   5.638135   4.204142
    21  C    7.455154   6.153604   7.290523   6.494535   5.077147
    22  C    8.583100   7.839881   8.764562   7.388361   6.139166
    23  H    6.860693   5.017765   6.322545   6.233254   4.830900
    24  C    8.784661   7.344522   8.541283   7.857514   6.432917
    25  C    9.735012   8.772367   9.797566   8.593245   7.283307
    26  H    8.769094   8.308166   9.109928   7.501644   6.377893
    27  C    9.854172   8.572522   9.720330   8.833859   7.441822
    28  H    9.116014   7.444682   8.715370   8.309695   6.873259
    29  C   11.020345  10.165270  11.154383   9.831860   8.572522
    30  C   11.225894   9.831860  11.025016  10.238283   8.833859
    31  C   12.171825  11.154383  12.214101  11.025016   9.720330
    32  H   11.131959  10.502179  11.396303   9.883434   8.714017
    33  C   12.282511  11.020345  12.171825  11.225894   9.854172
    34  H   11.377059   9.792421  11.046190  10.484633   9.055450
    35  H   13.162592  12.220149  13.254071  11.985155  10.711936
    36  H   13.301105  11.955351  13.138919  12.271837  10.886400
                    6          7          8          9         10
     6  C    0.000000
     7  C    1.377487   0.000000
     8  C    2.473128   1.431296   0.000000
     9  C    2.407964   1.416720   2.419736   0.000000
    10  C    2.695406   2.412458   3.720155   1.458476   0.000000
    11  C    2.342501   2.789211   4.216839   2.475935   1.358783
    12  H    4.611518   5.862626   7.084430   6.213068   5.291308
    13  H    4.502306   4.842120   6.249301   4.122535   2.666702
    14  H    5.257076   6.136823   7.543708   5.915148   4.598512
    15  H    2.634811   4.011208   4.968778   4.839459   4.491531
    16  H    1.070688   2.108728   2.688573   3.370701   3.765693
    17  H    2.686599   2.122166   1.034507   3.350912   4.529410
    18  H    3.775587   3.399188   4.601290   2.194136   1.080929
    19  C    3.658326   2.377505   1.335392   2.706975   4.159904
    20  C    3.657316   2.433454   2.819410   1.335392   2.429625
    21  C    4.197152   2.826931   2.433454   2.377505   3.734155
    22  C    4.901088   3.734155   2.429625   4.159904   5.615709
    23  H    4.499186   3.381550   3.853185   2.092354   2.682395
    24  C    5.570958   4.197152   3.657316   3.658326   4.901088
    25  C    6.113110   4.853423   3.678648   4.987308   6.423507
    26  H    5.059864   4.096435   2.672482   4.815508   6.240126
    27  C    6.432917   5.077147   4.204142   4.807518   6.139166
    28  H    6.175979   4.829114   4.529615   4.009182   5.035768
    29  C    7.344522   6.153604   4.872912   6.395170   7.839881
    30  C    7.857514   6.494535   5.638135   6.126996   7.388361
    31  C    8.541283   7.290523   6.088530   7.356498   8.764562
    32  H    7.420959   6.353995   4.974372   6.818516   8.275289
    33  C    8.784661   7.455154   6.429423   7.259542   8.583100
    34  H    8.201919   6.826558   6.162929   6.240145   7.368186
    35  H    9.497508   8.285945   7.027712   8.425948   9.845989
    36  H    9.846899   8.505005   7.516324   8.232337   9.512092
                   11         12         13         14         15
    11  C    0.000000
    12  H    3.932854   0.000000
    13  H    2.164509   4.284814   0.000000
    14  H    3.456726   2.452999   2.492743   0.000000
    15  H    3.355820   2.525845   4.895776   4.271924   0.000000
    16  H    3.300292   4.727307   5.420348   5.828349   2.361293
    17  H    4.795696   7.157251   6.917307   7.938379   4.833414
    18  H    2.094798   5.871479   2.400051   4.725290   5.421938
    19  C    4.987308   8.232337   6.818516   8.425948   6.240145
    20  C    3.678648   7.516324   4.974372   7.027712   6.162929
    21  C    4.853423   8.505005   6.353995   8.285945   6.826558
    22  C    6.423507   9.512092   8.275289   9.845989   7.368186
    23  H    4.035300   7.964056   4.890518   7.158671   6.875807
    24  C    6.113110   9.846899   7.420959   9.497508   8.201919
    25  C    7.394544  10.704300   9.081748  10.849535   8.647198
    26  H    6.876842   9.621588   8.854538  10.214345   7.323797
    27  C    7.283307  10.886400   8.714017  10.711936   9.055450
    28  H    6.341847  10.204587   7.363066   9.598092   8.768781
    29  C    8.772367  11.955351  10.502179  12.220149   9.792421
    30  C    8.593245  12.271837   9.883434  11.985155  10.484633
    31  C    9.797566  13.138919  11.396303  13.254071  11.046190
    32  H    9.081748  12.007236  10.938337  12.487256   9.723729
    33  C    9.735012  13.301105  11.131959  13.162592  11.377059
    34  H    8.647198  12.450934   9.723729  11.948569  10.834751
    35  H   10.849535  14.107241  12.487256  14.305364  11.948569
    36  H   10.704300  14.332462  12.007236  14.107241  12.450934
                   16         17         18         19         20
    16  H    0.000000
    17  H    2.472874   0.000000
    18  H    4.845446   5.484496   0.000000
    19  C    4.009182   2.092354   4.815508   0.000000
    20  C    4.529615   3.853185   2.672482   2.419736   0.000000
    21  C    4.829114   3.381550   4.096435   1.416720   1.431296
    22  C    5.035768   2.682395   6.240126   1.458476   3.720155
    23  H    5.440487   4.887269   2.490480   3.350912   1.034507
    24  C    6.175979   4.499186   5.059864   2.407964   2.473128
    25  C    6.341847   4.035300   6.876842   2.475935   4.216839
    26  H    4.963109   2.490480   6.977032   2.194136   4.601290
    27  C    6.873259   4.830900   6.377893   2.870885   3.740332
    28  H    6.895115   5.440487   4.963109   3.370701   2.688573
    29  C    7.444682   5.017765   8.308166   3.798948   5.647620
    30  C    8.309695   6.233254   7.501644   4.305229   4.959555
    31  C    8.715370   6.322545   9.109928   4.913038   6.441776
    32  H    7.363066   4.890518   8.854538   4.122535   6.249301
    33  C    9.116014   6.860693   8.769094   5.137407   6.169854
    34  H    8.768781   6.875807   7.323797   4.839459   4.968778
    35  H    9.598092   7.158671  10.214345   5.915148   7.543708
    36  H   10.204587   7.964056   9.621588   6.213068   7.084430
                   21         22         23         24         25
    21  C    0.000000
    22  C    2.412458   0.000000
    23  H    2.122166   4.529410   0.000000
    24  C    1.377487   2.695406   2.686599   0.000000
    25  C    2.789211   1.358783   4.795696   2.342501   0.000000
    26  H    3.399188   1.080929   5.484496   3.775587   2.094798
    27  C    2.430782   2.401893   4.036764   1.351192   1.408345
    28  H    2.108728   3.765693   2.472874   1.070688   3.300292
    29  C    4.218446   2.443505   6.199281   3.638975   1.432333
    30  C    3.772002   3.686657   5.049799   2.487666   2.430433
    31  C    5.043430   3.680040   6.823508   4.142029   2.437103
    32  H    4.842120   2.666702   6.917307   4.502306   2.164509
    33  C    4.883287   4.186708   6.348514   3.711813   2.828290
    34  H    4.011208   4.491531   4.833414   2.634811   3.355820
    35  H    6.136823   4.598512   7.938379   5.257076   3.456726
    36  H    5.862626   5.291308   7.157251   4.611518   3.932854
                   26         27         28         29         30
    26  H    0.000000
    27  C    3.369322   0.000000
    28  H    4.845446   2.054257   0.000000
    29  C    2.642010   2.422514   4.473742   0.000000
    30  C    4.525046   1.436844   2.670485   2.722517   0.000000
    31  C    3.992597   2.792432   4.733473   1.355810   2.335031
    32  H    2.400051   3.402922   5.420348   1.092792   3.814782
    33  C    4.782522   2.452689   4.012436   2.376635   1.349281
    34  H    5.421938   2.094063   2.361293   3.804045   1.086102
    35  H    4.725290   3.907240   5.828349   2.157785   3.330015
    36  H    5.871479   3.447663   4.727307   3.383143   2.126728
                   31         32         33         34         35
    31  C    0.000000
    32  H    2.130730   0.000000
    33  C    1.367055   3.366473   0.000000
    34  H    3.357042   4.895776   2.165289   0.000000
    35  H    1.115102   2.492743   2.120834   4.271924   0.000000
    36  H    2.161176   4.284814   1.104699   2.525845   2.452999
                   36
    36  H    0.000000
 Stoichiometry    C22H14
 Framework group  CI[X(C22H14)]
 Deg. of freedom    51
 Full point group                 CI      NOp   2
 Largest Abelian subgroup         CI      NOp   2
 Largest concise Abelian subgroup CI      NOp   2
                         Standard orientation:                         
 ---------------------------------------------------------------------
 Center     Atomic      Atomic             Coordinates (Angstroms)
 Number     Number       Type             X           Y           Z
 ---------------------------------------------------------------------
      1          6           0       -1.324200   -1.053100    5.903600
      2          6           0       -1.951100   -2.388300    4.040100
      3          6           0       -1.950000   -2.147200    5.374300
      4          6           0       -0.738900   -0.175300    5.062500
      5          6           0       -0.702600   -0.351800    3.637000
      6          6           0       -0.085600    0.455800    2.746600
      7          6           0       -0.090400    0.303200    1.377600
      8          6           0        0.617600    1.170400    0.485800
      9          6           0       -0.582600   -0.903600    0.822200
     10          6           0       -1.283500   -1.755300    1.776400
     11          6           0       -1.271000   -1.530500    3.116400
     12          1           0       -1.331100   -0.851900    6.989800
     13          1           0       -2.405300   -3.298100    3.639900
     14          1           0       -2.444100   -2.844400    6.090700
     15          1           0       -0.202600    0.719200    5.365600
     16          1           0        0.397000    1.316900    3.161300
     17          1           0        1.065200    2.013500    0.884600
     18          1           0       -1.742100   -2.667400    1.421200
     19          6           0        0.582600    0.903600   -0.822200
     20          6           0       -0.617600   -1.170400   -0.485800
     21          6           0        0.090400   -0.303200   -1.377600
     22          6           0        1.283500    1.755300   -1.776400
     23          1           0       -1.065200   -2.013500   -0.884600
     24          6           0        0.085600   -0.455800   -2.746600
     25          6           0        1.271000    1.530500   -3.116400
     26          1           0        1.742100    2.667400   -1.421200
     27          6           0        0.702600    0.351800   -3.637000
     28          1           0       -0.397000   -1.316900   -3.161300
     29          6           0        1.951100    2.388300   -4.040100
     30          6           0        0.738900    0.175300   -5.062500
     31          6           0        1.950000    2.147200   -5.374300
     32          1           0        2.405300    3.298100   -3.639900
     33          6           0        1.324200    1.053100   -5.903600
     34          1           0        0.202600   -0.719200   -5.365600
     35          1           0        2.444100    2.844400   -6.090700
     36          1           0        1.331100    0.851900   -6.989800
 ---------------------------------------------------------------------
 Rotational constants (GHZ):           1.4037381           0.1188709           0.1096056
 Leave Link  202 at Fri Apr  4 11:58:52 2025, MaxMem=  2415919104 cpu:               0.1 elap:               0.0
 (Enter /opt/software/gaussian/g16_avx/g16/l301.exe)
 Standard basis: 6-31G(d) (6D, 7F)
 Ernie: Thresh=  0.10000D-02 Tol=  0.10000D-05 Strict=F.
 There are   179 symmetry adapted cartesian basis functions of AG  symmetry.
 There are   179 symmetry adapted cartesian basis functions of AU  symmetry.
 There are   179 symmetry adapted basis functions of AG  symmetry.
 There are   179 symmetry adapted basis functions of AU  symmetry.
   358 basis functions,   672 primitive gaussians,   358 cartesian basis functions
    73 alpha electrons       73 beta electrons
       nuclear repulsion energy      1511.8430080771 Hartrees.
 IExCor=  402 DFT=T Ex+Corr=B3LYP ExCW=0 ScaHFX=  0.200000
 ScaDFX=  0.800000  0.720000  1.000000  0.810000 ScalE2=  1.000000  1.000000
 IRadAn=      5 IRanWt=     -1 IRanGd=            0 ICorTp=0 IEmpDi=  4
 NAtoms=   36 NActive=   36 NUniq=   18 SFac= 4.00D+00 NAtFMM=   60 NAOKFM=F Big=F
 Integral buffers will be    131072 words long.
 Raffenetti 2 integral format.
 Two-electron integral symmetry is turned on.
 Leave Link  301 at Fri Apr  4 11:58:53 2025, MaxMem=  2415919104 cpu:               0.8 elap:               0.1
 (Enter /opt/software/gaussian/g16_avx/g16/l302.exe)
 NPDir=0 NMtPBC=     1 NCelOv=     1 NCel=       1 NClECP=     1 NCelD=      1
         NCelK=      1 NCelE2=     1 NClLst=     1 CellRange=     0.0.
 One-electron integrals computed using PRISM.
 One-electron integral symmetry used in STVInt
 NBasis=   358 RedAO= T EigKep=  3.17D-04  NBF=   179   179
 NBsUse=   358 1.00D-06 EigRej= -1.00D+00 NBFU=   179   179
 Precomputing XC quadrature grid using
 IXCGrd= 4 IRadAn=           5 IRanWt=          -1 IRanGd=           0 AccXCQ= 0.00D+00.
 Generated NRdTot=       0 NPtTot=           0 NUsed=           0 NTot=          32
 NSgBfM=   351   351   351   351   351 MxSgAt=    36 MxSgA2=    36.
 Leave Link  302 at Fri Apr  4 11:58:54 2025, MaxMem=  2415919104 cpu:               4.1 elap:               0.5
 (Enter /opt/software/gaussian/g16_avx/g16/l303.exe)
 DipDrv:  MaxL=1.
 Leave Link  303 at Fri Apr  4 11:58:55 2025, MaxMem=  2415919104 cpu:               0.3 elap:               0.1
 (Enter /opt/software/gaussian/g16_avx/g16/l401.exe)
 ExpMin= 1.61D-01 ExpMax= 3.05D+03 ExpMxC= 4.57D+02 IAcc=3 IRadAn=         5 AccDes= 0.00D+00
 Harris functional with IExCor=  402 and IRadAn=       5 diagonalized for initial guess.
 HarFok:  IExCor=  402 AccDes= 0.00D+00 IRadAn=         5 IDoV= 1 UseB2=F ITyADJ=14
 ICtDFT=  3500011 ScaDFX=  1.000000  1.000000  1.000000  1.000000
 FoFCou: FMM=F IPFlag=           0 FMFlag=      100000 FMFlg1=           0
         NFxFlg=           0 DoJE=T BraDBF=F KetDBF=T FulRan=T
         wScrn=  0.000000 ICntrl=       500 IOpCl=  0 I1Cent=   200000004 NGrid=           0
         NMat0=    1 NMatS0=      1 NMatT0=    0 NMatD0=    1 NMtDS0=    0 NMtDT0=    0
 Petite list used in FoFCou.
 Harris En= -846.795423578094    
 JPrj=0 DoOrth=F DoCkMO=F.
 Initial guess orbital symmetries:
       Occupied  (AU) (AG) (AU) (AG) (AG) (AU) (AG) (AU) (AU) (AG)
                 (AG) (AU) (AU) (AG) (AU) (AG) (AG) (AU) (AU) (AG)
                 (AU) (AG) (AG) (AU) (AG) (AU) (AG) (AU) (AG) (AU)
                 (AU) (AG) (AU) (AG) (AG) (AU) (AG) (AG) (AU) (AU)
                 (AG) (AU) (AG) (AG) (AU) (AU) (AU) (AG) (AU) (AG)
                 (AU) (AU) (AG) (AG) (AU) (AG) (AU) (AU) (AG) (AU)
                 (AG) (AU) (AG) (AU) (AG) (AG) (AG) (AU) (AU) (AG)
                 (AG) (AU) (AG)
       Virtual   (AU) (AG) (AU) (AU) (AG) (AG) (AU) (AU) (AG) (AU)
                 (AG) (AU) (AG) (AG) (AU) (AU) (AG) (AU) (AG) (AU)
                 (AG) (AG) (AU) (AG) (AG) (AU) (AG) (AU) (AU) (AG)
                 (AU) (AG) (AU) (AU) (AG) (AG) (AU) (AU) (AG) (AU)
                 (AG) (AU) (AG) (AG) (AG) (AU) (AG) (AU) (AU) (AU)
                 (AG) (AU) (AG) (AG) (AU) (AU) (AG) (AG) (AU) (AG)
                 (AU) (AG) (AU) (AG) (AG) (AU) (AG) (AU) (AU) (AU)
                 (AG) (AU) (AG) (AG) (AU) (AU) (AU) (AG) (AU) (AG)
                 (AG) (AG) (AU) (AG) (AU) (AU) (AG) (AG) (AU) (AU)
                 (AG) (AG) (AU) (AU) (AU) (AG) (AG) (AU) (AG) (AU)
                 (AG) (AG) (AG) (AU) (AG) (AU) (AG) (AU) (AG) (AU)
                 (AG) (AU) (AU) (AG) (AU) (AU) (AG) (AG) (AU) (AG)
                 (AG) (AU) (AU) (AG) (AU) (AU) (AG) (AG) (AU) (AU)
                 (AG) (AG) (AU) (AU) (AG) (AU) (AU) (AG) (AG) (AU)
                 (AG) (AU) (AG) (AU) (AU) (AG) (AG) (AG) (AU) (AG)
                 (AU) (AU) (AG) (AU) (AG) (AU) (AG) (AU) (AG) (AG)
                 (AU) (AU) (AG) (AG) (AG) (AU) (AG) (AU) (AU) (AG)
                 (AU) (AG) (AU) (AU) (AG) (AG) (AU) (AG) (AU) (AG)
                 (AU) (AG) (AU) (AU) (AG) (AU) (AG) (AU) (AG) (AG)
                 (AU) (AG) (AU) (AG) (AU) (AG) (AU) (AU) (AU) (AG)
                 (AG) (AG) (AU) (AG) (AU) (AU) (AG) (AU) (AU) (AG)
                 (AG) (AU) (AU) (AG) (AG) (AG) (AU) (AU) (AU) (AG)
                 (AU) (AG) (AG) (AU) (AU) (AG) (AG) (AG) (AU) (AU)
                 (AG) (AU) (AU) (AG) (AG) (AU) (AG) (AU) (AG) (AU)
                 (AG) (AG) (AU) (AU) (AG) (AG) (AU) (AU) (AG) (AU)
                 (AG) (AG) (AU) (AG) (AG) (AU) (AU) (AG) (AU) (AG)
                 (AU) (AU) (AG) (AG) (AU) (AU) (AG) (AU) (AG) (AU)
                 (AG) (AU) (AG) (AU) (AG) (AU) (AG) (AG) (AU) (AU)
                 (AG) (AG) (AU) (AG) (AU)
 The electronic state of the initial guess is 1-AG.
 Leave Link  401 at Fri Apr  4 11:58:57 2025, MaxMem=  2415919104 cpu:              15.4 elap:               2.0
 (Enter /opt/software/gaussian/g16_avx/g16/l502.exe)
 Integral symmetry usage will be decided dynamically.
 Closed shell SCF:
 Using DIIS extrapolation, IDIIS=  1040.
 NGot=  2415919104 LenX=  2415654416 LenY=  2415525811
 Requested convergence on RMS density matrix=1.00D-08 within 128 cycles.
 Requested convergence on MAX density matrix=1.00D-06.
 Requested convergence on             energy=1.00D-06.
 No special actions if energy rises.
 Fock matrices will be formed incrementally for  20 cycles.
 Integral accuracy reduced to 1.0D-05 until final iterations.

 Cycle   1  Pass 0  IDiag  1:
 FoFJK:  IHMeth= 1 ICntrl=       0 DoSepK=F KAlg= 0 I1Cent=           0 FoldK=F
 IRaf= 700000000 NMat=       1 IRICut=       1 DoRegI=T DoRafI=F ISym2E= 1 IDoP0=0 IntGTp=1.
 FoFCou: FMM=F IPFlag=           0 FMFlag=      100000 FMFlg1=           0
         NFxFlg=           0 DoJE=F BraDBF=F KetDBF=F FulRan=T
         wScrn=  0.000000 ICntrl=         0 IOpCl=  0 I1Cent=           0 NGrid=           0
         NMat0=    1 NMatS0=      1 NMatT0=    0 NMatD0=    1 NMtDS0=    0 NMtDT0=    0
 Petite list used in FoFCou.
 E= -846.282316701181    
 DIIS: error= 4.29D-02 at cycle   1 NSaved=   1.
 NSaved= 1 IEnMin= 1 EnMin= -846.282316701181     IErMin= 1 ErrMin= 4.29D-02
 ErrMax= 4.29D-02  0.00D+00 EMaxC= 1.00D-01 BMatC= 4.09D-01 BMatP= 4.09D-01
 IDIUse=3 WtCom= 5.71D-01 WtEn= 4.29D-01
 Coeff-Com:  0.100D+01
 Coeff-En:   0.100D+01
 Coeff:      0.100D+01
 Gap=     0.079 Goal=   None    Shift=    0.000
 GapD=    0.079 DampG=0.500 DampE=0.500 DampFc=0.2500 IDamp=-1.
 Damping current iteration by 2.50D-01
 RMSDP=4.89D-03 MaxDP=1.22D-01              OVMax= 1.53D-01

 Cycle   2  Pass 0  IDiag  1:
 RMSU=  1.15D-03    CP:  9.78D-01
 E= -846.442263061477     Delta-E=       -0.159946360297 Rises=F Damp=T
 DIIS: error= 2.48D-02 at cycle   2 NSaved=   2.
 NSaved= 2 IEnMin= 2 EnMin= -846.442263061477     IErMin= 2 ErrMin= 2.48D-02
 ErrMax= 2.48D-02  0.00D+00 EMaxC= 1.00D-01 BMatC= 1.33D-01 BMatP= 4.09D-01
 IDIUse=3 WtCom= 7.52D-01 WtEn= 2.48D-01
 Coeff-Com: -0.115D+01 0.215D+01
 Coeff-En:   0.000D+00 0.100D+01
 Coeff:     -0.865D+00 0.186D+01
 Gap=     0.079 Goal=   None    Shift=    0.000
 RMSDP=2.29D-03 MaxDP=6.45D-02 DE=-1.60D-01 OVMax= 7.94D-02

 Cycle   3  Pass 0  IDiag  1:
 RMSU=  1.45D-03    CP:  9.26D-01  2.28D+00
 E= -846.731965219864     Delta-E=       -0.289702158387 Rises=F Damp=F
 DIIS: error= 6.50D-03 at cycle   3 NSaved=   3.
 NSaved= 3 IEnMin= 3 EnMin= -846.731965219864     IErMin= 3 ErrMin= 6.50D-03
 ErrMax= 6.50D-03  0.00D+00 EMaxC= 1.00D-01 BMatC= 8.30D-03 BMatP= 1.33D-01
 IDIUse=3 WtCom= 9.35D-01 WtEn= 6.50D-02
 Coeff-Com: -0.299D+00 0.617D+00 0.682D+00
 Coeff-En:   0.000D+00 0.000D+00 0.100D+01
 Coeff:     -0.280D+00 0.577D+00 0.703D+00
 Gap=     0.081 Goal=   None    Shift=    0.000
 RMSDP=6.83D-04 MaxDP=2.13D-02 DE=-2.90D-01 OVMax= 5.77D-02

 Cycle   4  Pass 0  IDiag  1:
 RMSU=  5.90D-04    CP:  9.32D-01  2.17D+00  7.92D-01
 E= -846.732887283636     Delta-E=       -0.000922063772 Rises=F Damp=F
 DIIS: error= 7.80D-03 at cycle   4 NSaved=   4.
 NSaved= 4 IEnMin= 4 EnMin= -846.732887283636     IErMin= 3 ErrMin= 6.50D-03
 ErrMax= 7.80D-03  0.00D+00 EMaxC= 1.00D-01 BMatC= 6.92D-03 BMatP= 8.30D-03
 IDIUse=3 WtCom= 9.22D-01 WtEn= 7.80D-02
 Coeff-Com: -0.693D-02 0.542D-01 0.481D+00 0.472D+00
 Coeff-En:   0.000D+00 0.000D+00 0.478D+00 0.522D+00
 Coeff:     -0.639D-02 0.499D-01 0.481D+00 0.475D+00
 Gap=     0.080 Goal=   None    Shift=    0.000
 RMSDP=4.26D-04 MaxDP=1.10D-02 DE=-9.22D-04 OVMax= 3.59D-02

 Cycle   5  Pass 0  IDiag  1:
 RMSU=  1.84D-04    CP:  9.29D-01  2.22D+00  8.50D-01  3.74D-01
 E= -846.740870103125     Delta-E=       -0.007982819489 Rises=F Damp=F
 DIIS: error= 9.72D-04 at cycle   5 NSaved=   5.
 NSaved= 5 IEnMin= 5 EnMin= -846.740870103125     IErMin= 5 ErrMin= 9.72D-04
 ErrMax= 9.72D-04  0.00D+00 EMaxC= 1.00D-01 BMatC= 2.57D-04 BMatP= 6.92D-03
 IDIUse=3 WtCom= 9.90D-01 WtEn= 9.72D-03
 Coeff-Com:  0.102D-01-0.447D-02 0.192D+00 0.246D+00 0.556D+00
 Coeff-En:   0.000D+00 0.000D+00 0.000D+00 0.000D+00 0.100D+01
 Coeff:      0.101D-01-0.443D-02 0.190D+00 0.244D+00 0.560D+00
 Gap=     0.080 Goal=   None    Shift=    0.000
 RMSDP=9.59D-05 MaxDP=2.10D-03 DE=-7.98D-03 OVMax= 8.32D-03

 Cycle   6  Pass 0  IDiag  1:
 RMSU=  3.97D-05    CP:  9.29D-01  2.21D+00  8.60D-01  4.68D-01  6.46D-01
 E= -846.741121655197     Delta-E=       -0.000251552072 Rises=F Damp=F
 DIIS: error= 3.06D-04 at cycle   6 NSaved=   6.
 NSaved= 6 IEnMin= 6 EnMin= -846.741121655197     IErMin= 6 ErrMin= 3.06D-04
 ErrMax= 3.06D-04  0.00D+00 EMaxC= 1.00D-01 BMatC= 4.45D-05 BMatP= 2.57D-04
 IDIUse=3 WtCom= 9.97D-01 WtEn= 3.06D-03
 Coeff-Com:  0.820D-02-0.109D-01 0.603D-01 0.945D-01 0.342D+00 0.505D+00
 Coeff-En:   0.000D+00 0.000D+00 0.000D+00 0.000D+00 0.119D+00 0.881D+00
 Coeff:      0.817D-02-0.108D-01 0.601D-01 0.942D-01 0.342D+00 0.507D+00
 Gap=     0.080 Goal=   None    Shift=    0.000
 RMSDP=2.47D-05 MaxDP=7.39D-04 DE=-2.52D-04 OVMax= 2.70D-03

 Cycle   7  Pass 0  IDiag  1:
 RMSU=  9.89D-06    CP:  9.29D-01  2.21D+00  8.61D-01  4.63D-01  6.93D-01
                    CP:  4.80D-01
 E= -846.741165964534     Delta-E=       -0.000044309337 Rises=F Damp=F
 DIIS: error= 8.83D-05 at cycle   7 NSaved=   7.
 NSaved= 7 IEnMin= 7 EnMin= -846.741165964534     IErMin= 7 ErrMin= 8.83D-05
 ErrMax= 8.83D-05  0.00D+00 EMaxC= 1.00D-01 BMatC= 1.82D-06 BMatP= 4.45D-05
 IDIUse=1 WtCom= 1.00D+00 WtEn= 0.00D+00
 Coeff-Com:  0.487D-02-0.672D-02 0.302D-01 0.481D-01 0.182D+00 0.296D+00
 Coeff-Com:  0.445D+00
 Coeff:      0.487D-02-0.672D-02 0.302D-01 0.481D-01 0.182D+00 0.296D+00
 Coeff:      0.445D+00
 Gap=     0.080 Goal=   None    Shift=    0.000
 RMSDP=7.21D-06 MaxDP=1.58D-04 DE=-4.43D-05 OVMax= 9.01D-04

 Initial convergence to 1.0D-05 achieved.  Increase integral accuracy.
 Cycle   8  Pass 1  IDiag  1:
 E= -846.741164373951     Delta-E=        0.000001590583 Rises=F Damp=F
 DIIS: error= 8.81D-05 at cycle   1 NSaved=   1.
 NSaved= 1 IEnMin= 1 EnMin= -846.741164373951     IErMin= 1 ErrMin= 8.81D-05
 ErrMax= 8.81D-05  0.00D+00 EMaxC= 1.00D-01 BMatC= 1.35D-06 BMatP= 1.35D-06
 IDIUse=1 WtCom= 1.00D+00 WtEn= 0.00D+00
 Coeff-Com:  0.100D+01
 Coeff:      0.100D+01
 Gap=     0.080 Goal=   None    Shift=    0.000
 RMSDP=7.21D-06 MaxDP=1.58D-04 DE= 1.59D-06 OVMax= 6.72D-04

 Cycle   9  Pass 1  IDiag  1:
 RMSU=  7.06D-05    CP:  1.00D+00
 E= -846.741164448339     Delta-E=       -0.000000074388 Rises=F Damp=F
 DIIS: error= 6.82D-05 at cycle   2 NSaved=   2.
 NSaved= 2 IEnMin= 2 EnMin= -846.741164448339     IErMin= 2 ErrMin= 6.82D-05
 ErrMax= 6.82D-05  0.00D+00 EMaxC= 1.00D-01 BMatC= 1.03D-06 BMatP= 1.35D-06
 IDIUse=1 WtCom= 1.00D+00 WtEn= 0.00D+00
 Coeff-Com:  0.452D+00 0.548D+00
 Coeff:      0.452D+00 0.548D+00
 Gap=     0.080 Goal=   None    Shift=    0.000
 RMSDP=7.46D-06 MaxDP=1.79D-04 DE=-7.44D-08 OVMax= 8.86D-04

 Cycle  10  Pass 1  IDiag  1:
 RMSU=  7.45D-06    CP:  1.00D+00  1.00D+00
 E= -846.741164957300     Delta-E=       -0.000000508961 Rises=F Damp=F
 DIIS: error= 5.29D-05 at cycle   3 NSaved=   3.
 NSaved= 3 IEnMin= 3 EnMin= -846.741164957300     IErMin= 3 ErrMin= 5.29D-05
 ErrMax= 5.29D-05  0.00D+00 EMaxC= 1.00D-01 BMatC= 5.84D-07 BMatP= 1.03D-06
 IDIUse=1 WtCom= 1.00D+00 WtEn= 0.00D+00
 Coeff-Com:  0.732D-02 0.428D+00 0.565D+00
 Coeff:      0.732D-02 0.428D+00 0.565D+00
 Gap=     0.080 Goal=   None    Shift=    0.000
 RMSDP=3.24D-06 MaxDP=8.27D-05 DE=-5.09D-07 OVMax= 4.10D-04

 Cycle  11  Pass 1  IDiag  1:
 RMSU=  8.63D-07    CP:  1.00D+00  1.01D+00  5.86D-01
 E= -846.741165640754     Delta-E=       -0.000000683454 Rises=F Damp=F
 DIIS: error= 6.81D-06 at cycle   4 NSaved=   4.
 NSaved= 4 IEnMin= 4 EnMin= -846.741165640754     IErMin= 4 ErrMin= 6.81D-06
 ErrMax= 6.81D-06  0.00D+00 EMaxC= 1.00D-01 BMatC= 1.49D-08 BMatP= 5.84D-07
 IDIUse=1 WtCom= 1.00D+00 WtEn= 0.00D+00
 Coeff-Com: -0.307D-02 0.256D+00 0.351D+00 0.396D+00
 Coeff:     -0.307D-02 0.256D+00 0.351D+00 0.396D+00
 Gap=     0.080 Goal=   None    Shift=    0.000
 RMSDP=5.15D-07 MaxDP=1.37D-05 DE=-6.83D-07 OVMax= 4.01D-05

 Cycle  12  Pass 1  IDiag  1:
 RMSU=  1.58D-07    CP:  1.00D+00  1.01D+00  5.84D-01  4.33D-01
 E= -846.741165655852     Delta-E=       -0.000000015099 Rises=F Damp=F
 DIIS: error= 9.89D-07 at cycle   5 NSaved=   5.
 NSaved= 5 IEnMin= 5 EnMin= -846.741165655852     IErMin= 5 ErrMin= 9.89D-07
 ErrMax= 9.89D-07  0.00D+00 EMaxC= 1.00D-01 BMatC= 1.56D-10 BMatP= 1.49D-08
 IDIUse=1 WtCom= 1.00D+00 WtEn= 0.00D+00
 Coeff-Com: -0.174D-02 0.124D+00 0.170D+00 0.205D+00 0.503D+00
 Coeff:     -0.174D-02 0.124D+00 0.170D+00 0.205D+00 0.503D+00
 Gap=     0.080 Goal=   None    Shift=    0.000
 RMSDP=7.54D-08 MaxDP=1.59D-06 DE=-1.51D-08 OVMax= 6.75D-06

 Cycle  13  Pass 1  IDiag  1:
 RMSU=  6.24D-08    CP:  1.00D+00  1.01D+00  5.87D-01  4.55D-01  7.94D-01
 E= -846.741165656004     Delta-E=       -0.000000000152 Rises=F Damp=F
 DIIS: error= 5.81D-07 at cycle   6 NSaved=   6.
 NSaved= 6 IEnMin= 6 EnMin= -846.741165656004     IErMin= 6 ErrMin= 5.81D-07
 ErrMax= 5.81D-07  0.00D+00 EMaxC= 1.00D-01 BMatC= 4.01D-11 BMatP= 1.56D-10
 IDIUse=1 WtCom= 1.00D+00 WtEn= 0.00D+00
 Coeff-Com: -0.750D-03 0.470D-01 0.644D-01 0.825D-01 0.338D+00 0.469D+00
 Coeff:     -0.750D-03 0.470D-01 0.644D-01 0.825D-01 0.338D+00 0.469D+00
 Gap=     0.080 Goal=   None    Shift=    0.000
 RMSDP=2.81D-08 MaxDP=6.37D-07 DE=-1.52D-10 OVMax= 2.31D-06

 Cycle  14  Pass 1  IDiag  1:
 RMSU=  1.40D-08    CP:  1.00D+00  1.01D+00  5.86D-01  4.50D-01  8.58D-01
                    CP:  6.73D-01
 E= -846.741165656040     Delta-E=       -0.000000000036 Rises=F Damp=F
 DIIS: error= 4.08D-08 at cycle   7 NSaved=   7.
 NSaved= 7 IEnMin= 7 EnMin= -846.741165656040     IErMin= 7 ErrMin= 4.08D-08
 ErrMax= 4.08D-08  0.00D+00 EMaxC= 1.00D-01 BMatC= 6.33D-13 BMatP= 4.01D-11
 IDIUse=1 WtCom= 1.00D+00 WtEn= 0.00D+00
 Coeff-Com: -0.721D-04 0.342D-02 0.441D-02 0.779D-02 0.558D-01 0.137D+00
 Coeff-Com:  0.791D+00
 Coeff:     -0.721D-04 0.342D-02 0.441D-02 0.779D-02 0.558D-01 0.137D+00
 Coeff:      0.791D+00
 Gap=     0.080 Goal=   None    Shift=    0.000
 RMSDP=5.08D-09 MaxDP=1.01D-07 DE=-3.64D-11 OVMax= 3.76D-07

 SCF Done:  E(RB3LYP) =  -846.741165656     A.U. after   14 cycles
            NFock= 14  Conv=0.51D-08     -V/T= 2.0078
 KE= 8.402192019393D+02 PE=-4.985278988094D+03 EE= 1.786475612421D+03
 Leave Link  502 at Fri Apr  4 11:59:29 2025, MaxMem=  2415919104 cpu:             248.6 elap:              31.3
 (Enter /opt/software/gaussian/g16_avx/g16/l601.exe)
 Copying SCF densities to generalized density rwf, IOpCl= 0 IROHF=0.

 **********************************************************************

            Population analysis using the SCF Density.

 **********************************************************************

 Orbital symmetries:
       Occupied  (AU) (AG) (AU) (AG) (AU) (AG) (AU) (AG) (AU) (AG)
                 (AG) (AU) (AG) (AU) (AG) (AU) (AU) (AG) (AU) (AG)
                 (AU) (AG) (AG) (AU) (AG) (AU) (AU) (AG) (AG) (AU)
                 (AU) (AG) (AU) (AG) (AU) (AG) (AG) (AU) (AG) (AU)
                 (AG) (AU) (AG) (AG) (AU) (AU) (AU) (AU) (AG) (AG)
                 (AU) (AG) (AU) (AG) (AU) (AU) (AG) (AG) (AU) (AU)
                 (AG) (AU) (AG) (AG) (AU) (AG) (AG) (AU) (AU) (AG)
                 (AG) (AU) (AG)
       Virtual   (AU) (AG) (AU) (AU) (AG) (AG) (AU) (AG) (AU) (AU)
                 (AU) (AG) (AG) (AU) (AU) (AG) (AG) (AG) (AU) (AU)
                 (AG) (AG) (AU) (AG) (AG) (AU) (AG) (AU) (AU) (AU)
                 (AG) (AU) (AG) (AU) (AG) (AU) (AG) (AU) (AG) (AU)
                 (AG) (AG) (AU) (AG) (AG) (AU) (AU) (AG) (AU) (AU)
                 (AU) (AG) (AG) (AU) (AG) (AG) (AG) (AU) (AU) (AG)
                 (AU) (AU) (AG) (AG) (AU) (AG) (AU) (AG) (AU) (AG)
                 (AU) (AG) (AU) (AU) (AG) (AU) (AU) (AG) (AU) (AG)
                 (AG) (AG) (AU) (AU) (AG) (AG) (AU) (AG) (AU) (AU)
                 (AU) (AU) (AG) (AG) (AU) (AG) (AG) (AG) (AU) (AG)
                 (AU) (AG) (AG) (AU) (AG) (AU) (AG) (AU) (AG) (AU)
                 (AU) (AG) (AU) (AG) (AU) (AG) (AU) (AU) (AG) (AG)
                 (AU) (AG) (AG) (AU) (AU) (AU) (AG) (AU) (AG) (AU)
                 (AG) (AG) (AU) (AU) (AG) (AU) (AG) (AU) (AG) (AU)
                 (AG) (AU) (AG) (AU) (AU) (AG) (AG) (AG) (AU) (AG)
                 (AU) (AG) (AU) (AU) (AG) (AG) (AU) (AU) (AG) (AG)
                 (AU) (AG) (AU) (AG) (AG) (AU) (AG) (AU) (AU) (AG)
                 (AU) (AU) (AG) (AG) (AU) (AG) (AU) (AG) (AU) (AG)
                 (AU) (AG) (AU) (AU) (AG) (AU) (AG) (AU) (AG) (AG)
                 (AU) (AG) (AU) (AG) (AU) (AU) (AG) (AU) (AU) (AG)
                 (AG) (AU) (AG) (AG) (AU) (AU) (AG) (AU) (AU) (AG)
                 (AG) (AU) (AU) (AG) (AG) (AG) (AU) (AU) (AU) (AG)
                 (AU) (AG) (AG) (AU) (AU) (AG) (AG) (AG) (AU) (AU)
                 (AG) (AU) (AU) (AG) (AG) (AU) (AG) (AU) (AG) (AU)
                 (AG) (AG) (AU) (AU) (AG) (AG) (AU) (AG) (AU) (AU)
                 (AG) (AG) (AU) (AG) (AG) (AU) (AU) (AG) (AU) (AG)
                 (AU) (AU) (AG) (AG) (AU) (AU) (AG) (AU) (AG) (AU)
                 (AG) (AU) (AG) (AU) (AG) (AU) (AG) (AG) (AU) (AU)
                 (AG) (AG) (AU) (AG) (AU)
 The electronic state is 1-AG.
 Alpha  occ. eigenvalues --  -10.19436 -10.19436 -10.19249 -10.19248 -10.18823
 Alpha  occ. eigenvalues --  -10.18823 -10.18796 -10.18796 -10.18769 -10.18769
 Alpha  occ. eigenvalues --  -10.18726 -10.18726 -10.18717 -10.18717 -10.18649
 Alpha  occ. eigenvalues --  -10.18649 -10.18622 -10.18622 -10.18354 -10.18354
 Alpha  occ. eigenvalues --  -10.18011 -10.18011  -0.89781  -0.88227  -0.85999
 Alpha  occ. eigenvalues --   -0.82753  -0.79428  -0.79350  -0.77500  -0.75488
 Alpha  occ. eigenvalues --   -0.74612  -0.71830  -0.68663  -0.67500  -0.62546
 Alpha  occ. eigenvalues --   -0.61899  -0.61284  -0.59667  -0.59446  -0.56589
 Alpha  occ. eigenvalues --   -0.52730  -0.51956  -0.51432  -0.49409  -0.48458
 Alpha  occ. eigenvalues --   -0.46769  -0.45628  -0.45094  -0.44287  -0.44114
 Alpha  occ. eigenvalues --   -0.42272  -0.41410  -0.41379  -0.40869  -0.40734
 Alpha  occ. eigenvalues --   -0.40125  -0.39569  -0.39170  -0.37638  -0.36736
 Alpha  occ. eigenvalues --   -0.35420  -0.35196  -0.33190  -0.32858  -0.32389
 Alpha  occ. eigenvalues --   -0.31571  -0.30141  -0.28702  -0.28439  -0.25677
 Alpha  occ. eigenvalues --   -0.24268  -0.21265  -0.16918
 Alpha virt. eigenvalues --   -0.08930  -0.03696  -0.00918   0.01028   0.04313
 Alpha virt. eigenvalues --    0.04442   0.05158   0.09213   0.09257   0.10281
 Alpha virt. eigenvalues --    0.10964   0.12378   0.13253   0.13863   0.15269
 Alpha virt. eigenvalues --    0.15478   0.16271   0.17118   0.17433   0.17688
 Alpha virt. eigenvalues --    0.19137   0.19585   0.21271   0.22663   0.23336
 Alpha virt. eigenvalues --    0.23670   0.25116   0.26845   0.27791   0.28854
 Alpha virt. eigenvalues --    0.29317   0.30775   0.31906   0.32207   0.33499
 Alpha virt. eigenvalues --    0.34818   0.34856   0.36826   0.37151   0.40371
 Alpha virt. eigenvalues --    0.45177   0.47376   0.47437   0.48150   0.48566
 Alpha virt. eigenvalues --    0.49112   0.50088   0.50952   0.51155   0.52516
 Alpha virt. eigenvalues --    0.52839   0.53034   0.53517   0.54055   0.54267
 Alpha virt. eigenvalues --    0.55176   0.55534   0.55875   0.56507   0.57087
 Alpha virt. eigenvalues --    0.57127   0.57427   0.57714   0.58912   0.59524
 Alpha virt. eigenvalues --    0.59972   0.60070   0.60456   0.60647   0.61029
 Alpha virt. eigenvalues --    0.61162   0.62248   0.62686   0.63038   0.63061
 Alpha virt. eigenvalues --    0.63262   0.63790   0.63919   0.64872   0.65996
 Alpha virt. eigenvalues --    0.66241   0.67012   0.68110   0.70199   0.70443
 Alpha virt. eigenvalues --    0.75191   0.75226   0.75673   0.78615   0.79975
 Alpha virt. eigenvalues --    0.81039   0.81846   0.82083   0.82428   0.82705
 Alpha virt. eigenvalues --    0.82859   0.84576   0.85124   0.85285   0.85538
 Alpha virt. eigenvalues --    0.85647   0.86775   0.87458   0.88452   0.89415
 Alpha virt. eigenvalues --    0.89528   0.90690   0.92382   0.94105   0.95213
 Alpha virt. eigenvalues --    0.96407   0.96516   0.97648   0.98103   0.99606
 Alpha virt. eigenvalues --    0.99920   1.00474   1.02754   1.02996   1.04026
 Alpha virt. eigenvalues --    1.06082   1.06509   1.06865   1.07834   1.09902
 Alpha virt. eigenvalues --    1.12286   1.14009   1.15248   1.15888   1.18037
 Alpha virt. eigenvalues --    1.18064   1.19187   1.19649   1.21810   1.24254
 Alpha virt. eigenvalues --    1.25561   1.26540   1.26603   1.30917   1.31086
 Alpha virt. eigenvalues --    1.33628   1.36506   1.38475   1.39154   1.40102
 Alpha virt. eigenvalues --    1.40987   1.41660   1.43038   1.43555   1.44569
 Alpha virt. eigenvalues --    1.44880   1.47089   1.47545   1.48054   1.50167
 Alpha virt. eigenvalues --    1.50507   1.51004   1.52648   1.53339   1.53850
 Alpha virt. eigenvalues --    1.56329   1.58721   1.58802   1.59962   1.62464
 Alpha virt. eigenvalues --    1.63759   1.72703   1.75148   1.76550   1.76747
 Alpha virt. eigenvalues --    1.78011   1.80235   1.80519   1.82461   1.83040
 Alpha virt. eigenvalues --    1.86637   1.87303   1.87419   1.88029   1.88557
 Alpha virt. eigenvalues --    1.89347   1.89981   1.90336   1.90899   1.91897
 Alpha virt. eigenvalues --    1.93598   1.93836   1.94314   1.95614   1.97192
 Alpha virt. eigenvalues --    1.97497   1.99326   2.00584   2.01776   2.02578
 Alpha virt. eigenvalues --    2.04826   2.05493   2.07501   2.10692   2.13998
 Alpha virt. eigenvalues --    2.14700   2.15827   2.15961   2.17722   2.18134
 Alpha virt. eigenvalues --    2.21963   2.22356   2.23714   2.25385   2.26331
 Alpha virt. eigenvalues --    2.27264   2.28592   2.30253   2.30366   2.33102
 Alpha virt. eigenvalues --    2.34520   2.35703   2.35819   2.37043   2.38166
 Alpha virt. eigenvalues --    2.40849   2.41719   2.42064   2.42731   2.43328
 Alpha virt. eigenvalues --    2.43981   2.46582   2.47102   2.53387   2.60815
 Alpha virt. eigenvalues --    2.64459   2.64676   2.65414   2.65927   2.66990
 Alpha virt. eigenvalues --    2.69220   2.70298   2.71900   2.72080   2.74660
 Alpha virt. eigenvalues --    2.76049   2.76623   2.77619   2.78557   2.79222
 Alpha virt. eigenvalues --    2.83264   2.87307   2.89353   2.89743   2.91753
 Alpha virt. eigenvalues --    2.93513   2.94680   3.00839   3.02419   3.08112
 Alpha virt. eigenvalues --    3.09886   3.14114   3.18363   3.27223   3.37748
 Alpha virt. eigenvalues --    3.49865   3.56647   3.56950   4.10725   4.10793
 Alpha virt. eigenvalues --    4.11343   4.12058   4.12268   4.12861   4.13043
 Alpha virt. eigenvalues --    4.13206   4.14075   4.15576   4.19321   4.22751
 Alpha virt. eigenvalues --    4.28136   4.34548   4.37126   4.40497   4.41260
 Alpha virt. eigenvalues --    4.47103   4.52594   4.67325   4.82013   4.93029
          Condensed to atoms (all electrons):
               1          2          3          4          5          6
     1  C    4.896999  -0.019279   0.472030   0.540411   0.003540   0.010493
     2  C   -0.019279   5.113681   0.546132  -0.083005  -0.026073   0.019853
     3  C    0.472030   0.546132   4.898161  -0.014919  -0.043300  -0.001117
     4  C    0.540411  -0.083005  -0.014919   5.105485   0.415561  -0.095259
     5  C    0.003540  -0.026073  -0.043300   0.415561   4.709656   0.432189
     6  C    0.010493   0.019853  -0.001117  -0.095259   0.432189   5.460799
     7  C   -0.000327   0.000446   0.000038   0.007982   0.015524   0.368735
     8  C    0.000002   0.000001   0.000000  -0.000225   0.005643  -0.063752
     9  C    0.000031   0.006552  -0.000293  -0.000054  -0.036076  -0.027207
    10  C   -0.000929  -0.088677   0.008948   0.018756  -0.033583  -0.115971
    11  C   -0.043426   0.399081  -0.000250  -0.024736   0.454176  -0.029644
    12  H    0.357250   0.004627  -0.041849  -0.036510   0.002771  -0.000178
    13  H    0.004908   0.352143  -0.044694   0.000618   0.005071  -0.000272
    14  H   -0.044939  -0.034694   0.353734   0.004955   0.001066   0.000013
    15  H   -0.048411   0.000622   0.005407   0.345208  -0.042608  -0.013056
    16  H    0.000049  -0.000364   0.000032  -0.011713  -0.042999   0.338919
    17  H   -0.000000  -0.000000   0.000000  -0.000001   0.000100  -0.008979
    18  H    0.000021  -0.010128   0.000206  -0.000273   0.005662   0.000719
    19  C    0.000000   0.000000  -0.000000   0.000001  -0.000250   0.005779
    20  C   -0.000000  -0.000347   0.000003   0.000006   0.000665   0.015170
    21  C   -0.000000   0.000002   0.000000   0.000000   0.000002   0.000913
    22  C    0.000000   0.000000  -0.000000  -0.000000   0.000002  -0.000408
    23  H    0.000000  -0.000006   0.000000  -0.000000   0.000003  -0.000206
    24  C   -0.000000   0.000000   0.000000   0.000000  -0.000000   0.000022
    25  C   -0.000000  -0.000000   0.000000  -0.000000   0.000000   0.000003
    26  H    0.000000   0.000000   0.000000   0.000000  -0.000000  -0.000002
    27  C    0.000000  -0.000000  -0.000000  -0.000000  -0.000000  -0.000000
    28  H   -0.000000  -0.000000   0.000000   0.000000   0.000000  -0.000000
    29  C    0.000000   0.000000   0.000000  -0.000000  -0.000000   0.000000
    30  C    0.000000  -0.000000   0.000000   0.000000  -0.000000   0.000000
    31  C    0.000000   0.000000  -0.000000   0.000000  -0.000000   0.000000
    32  H    0.000000  -0.000000   0.000000  -0.000000   0.000000   0.000000
    33  C   -0.000000   0.000000   0.000000   0.000000   0.000000  -0.000000
    34  H    0.000000  -0.000000  -0.000000  -0.000000  -0.000000   0.000000
    35  H    0.000000   0.000000   0.000000  -0.000000  -0.000000  -0.000000
    36  H    0.000000  -0.000000   0.000000   0.000000   0.000000  -0.000000
               7          8          9         10         11         12
     1  C   -0.000327   0.000002   0.000031  -0.000929  -0.043426   0.357250
     2  C    0.000446   0.000001   0.006552  -0.088677   0.399081   0.004627
     3  C    0.000038   0.000000  -0.000293   0.008948  -0.000250  -0.041849
     4  C    0.007982  -0.000225  -0.000054   0.018756  -0.024736  -0.036510
     5  C    0.015524   0.005643  -0.036076  -0.033583   0.454176   0.002771
     6  C    0.368735  -0.063752  -0.027207  -0.115971  -0.029644  -0.000178
     7  C    4.816763   0.422097   0.450039  -0.018108  -0.043776   0.000002
     8  C    0.422097   5.299623  -0.035885   0.011986   0.000448  -0.000000
     9  C    0.450039  -0.035885   4.807680   0.366611   0.011915  -0.000000
    10  C   -0.018108   0.011986   0.366611   5.417626   0.444472   0.000011
    11  C   -0.043776   0.000448   0.011915   0.444472   4.756882   0.000831
    12  H    0.000002  -0.000000  -0.000000   0.000011   0.000831   0.590789
    13  H   -0.000001   0.000000   0.000149  -0.009662  -0.042288  -0.000194
    14  H   -0.000000   0.000000   0.000002  -0.000189   0.002867  -0.006084
    15  H    0.000048  -0.000001   0.000001  -0.000271   0.006948  -0.005825
    16  H   -0.049652  -0.010298   0.005413   0.000818   0.007552  -0.000015
    17  H   -0.044220   0.352659   0.006263  -0.000213   0.000003  -0.000000
    18  H    0.004573  -0.000207  -0.044710   0.344866  -0.042386  -0.000000
    19  C    0.009563   0.430401  -0.035600   0.000946  -0.000021  -0.000000
    20  C   -0.045243  -0.081994   0.430401  -0.066698   0.006369   0.000000
    21  C   -0.032398  -0.045243   0.009563   0.004479  -0.000236  -0.000000
    22  C    0.004479  -0.066698   0.000946   0.000002   0.000000  -0.000000
    23  H    0.005324   0.000302  -0.046396  -0.009400   0.000176   0.000000
    24  C    0.000913   0.015170   0.005779  -0.000408   0.000003  -0.000000
    25  C   -0.000236   0.006369  -0.000021   0.000000  -0.000000  -0.000000
    26  H    0.000186  -0.007643   0.000008  -0.000000   0.000000  -0.000000
    27  C    0.000002   0.000665  -0.000250   0.000002   0.000000   0.000000
    28  H   -0.000003  -0.000231   0.000245  -0.000004  -0.000000   0.000000
    29  C    0.000002  -0.000347   0.000000   0.000000  -0.000000  -0.000000
    30  C    0.000000   0.000006   0.000001  -0.000000  -0.000000   0.000000
    31  C    0.000000   0.000003  -0.000000  -0.000000   0.000000   0.000000
    32  H   -0.000000  -0.000003  -0.000000   0.000000   0.000000  -0.000000
    33  C   -0.000000  -0.000000   0.000000   0.000000  -0.000000   0.000000
    34  H    0.000000  -0.000000  -0.000000  -0.000000   0.000000   0.000000
    35  H    0.000000  -0.000000   0.000000  -0.000000   0.000000   0.000000
    36  H   -0.000000   0.000000  -0.000000  -0.000000  -0.000000   0.000000
              13         14         15         16         17         18
     1  C    0.004908  -0.044939  -0.048411   0.000049  -0.000000   0.000021
     2  C    0.352143  -0.034694   0.000622  -0.000364  -0.000000  -0.010128
     3  C   -0.044694   0.353734   0.005407   0.000032   0.000000   0.000206
     4  C    0.000618   0.004955   0.345208  -0.011713  -0.000001  -0.000273
     5  C    0.005071   0.001066  -0.042608  -0.042999   0.000100   0.005662
     6  C   -0.000272   0.000013  -0.013056   0.338919  -0.008979   0.000719
     7  C   -0.000001  -0.000000   0.000048  -0.049652  -0.044220   0.004573
     8  C    0.000000   0.000000  -0.000001  -0.010298   0.352659  -0.000207
     9  C    0.000149   0.000002   0.000001   0.005413   0.006263  -0.044710
    10  C   -0.009662  -0.000189  -0.000271   0.000818  -0.000213   0.344866
    11  C   -0.042288   0.002867   0.006948   0.007552   0.000003  -0.042386
    12  H   -0.000194  -0.006084  -0.005825  -0.000015  -0.000000  -0.000000
    13  H    0.607826  -0.006243   0.000023   0.000005   0.000000   0.007884
    14  H   -0.006243   0.603020  -0.000224  -0.000000  -0.000000  -0.000017
    15  H    0.000023  -0.000224   0.620956   0.009937   0.000004   0.000005
    16  H    0.000005  -0.000000   0.009937   0.631731   0.006632   0.000034
    17  H    0.000000  -0.000000   0.000004   0.006632   0.607173   0.000004
    18  H    0.007884  -0.000017   0.000005   0.000034   0.000004   0.616000
    19  C   -0.000000   0.000000  -0.000000   0.000245  -0.046396   0.000008
    20  C   -0.000003  -0.000000  -0.000000  -0.000231   0.000302  -0.007643
    21  C   -0.000000   0.000000   0.000000  -0.000003   0.005324   0.000186
    22  C    0.000000  -0.000000  -0.000000  -0.000004  -0.009400  -0.000000
    23  H    0.000003  -0.000000   0.000000   0.000004   0.000033   0.005995
    24  C    0.000000  -0.000000   0.000000  -0.000000  -0.000206  -0.000002
    25  C    0.000000   0.000000   0.000000  -0.000000   0.000176   0.000000
    26  H   -0.000000  -0.000000  -0.000000   0.000002   0.005995   0.000000
    27  C    0.000000  -0.000000  -0.000000   0.000000   0.000003  -0.000000
    28  H   -0.000000  -0.000000  -0.000000   0.000000   0.000004   0.000002
    29  C   -0.000000   0.000000  -0.000000  -0.000000  -0.000006   0.000000
    30  C   -0.000000  -0.000000  -0.000000   0.000000  -0.000000   0.000000
    31  C    0.000000   0.000000  -0.000000   0.000000   0.000000   0.000000
    32  H    0.000000   0.000000   0.000000  -0.000000   0.000003  -0.000000
    33  C    0.000000   0.000000   0.000000  -0.000000   0.000000   0.000000
    34  H    0.000000  -0.000000  -0.000000  -0.000000   0.000000  -0.000000
    35  H    0.000000   0.000000  -0.000000  -0.000000  -0.000000  -0.000000
    36  H   -0.000000   0.000000   0.000000   0.000000   0.000000  -0.000000
              19         20         21         22         23         24
     1  C    0.000000  -0.000000  -0.000000   0.000000   0.000000  -0.000000
     2  C    0.000000  -0.000347   0.000002   0.000000  -0.000006   0.000000
     3  C   -0.000000   0.000003   0.000000  -0.000000   0.000000   0.000000
     4  C    0.000001   0.000006   0.000000  -0.000000  -0.000000   0.000000
     5  C   -0.000250   0.000665   0.000002   0.000002   0.000003  -0.000000
     6  C    0.005779   0.015170   0.000913  -0.000408  -0.000206   0.000022
     7  C    0.009563  -0.045243  -0.032398   0.004479   0.005324   0.000913
     8  C    0.430401  -0.081994  -0.045243  -0.066698   0.000302   0.015170
     9  C   -0.035600   0.430401   0.009563   0.000946  -0.046396   0.005779
    10  C    0.000946  -0.066698   0.004479   0.000002  -0.009400  -0.000408
    11  C   -0.000021   0.006369  -0.000236   0.000000   0.000176   0.000003
    12  H   -0.000000   0.000000  -0.000000  -0.000000   0.000000  -0.000000
    13  H   -0.000000  -0.000003  -0.000000   0.000000   0.000003   0.000000
    14  H    0.000000  -0.000000   0.000000  -0.000000  -0.000000  -0.000000
    15  H   -0.000000  -0.000000   0.000000  -0.000000   0.000000   0.000000
    16  H    0.000245  -0.000231  -0.000003  -0.000004   0.000004  -0.000000
    17  H   -0.046396   0.000302   0.005324  -0.009400   0.000033  -0.000206
    18  H    0.000008  -0.007643   0.000186  -0.000000   0.005995  -0.000002
    19  C    4.807680  -0.035885   0.450039   0.366611   0.006263  -0.027207
    20  C   -0.035885   5.299623   0.422097   0.011986   0.352659  -0.063752
    21  C    0.450039   0.422097   4.816763  -0.018108  -0.044220   0.368735
    22  C    0.366611   0.011986  -0.018108   5.417626  -0.000213  -0.115971
    23  H    0.006263   0.352659  -0.044220  -0.000213   0.607173  -0.008979
    24  C   -0.027207  -0.063752   0.368735  -0.115971  -0.008979   5.460799
    25  C    0.011915   0.000448  -0.043776   0.444472   0.000003  -0.029644
    26  H   -0.044710  -0.000207   0.004573   0.344866   0.000004   0.000719
    27  C   -0.036076   0.005643   0.015524  -0.033583   0.000100   0.432189
    28  H    0.005413  -0.010298  -0.049652   0.000818   0.006632   0.338919
    29  C    0.006552   0.000001   0.000446  -0.088677  -0.000000   0.019853
    30  C   -0.000054  -0.000225   0.007982   0.018756  -0.000001  -0.095259
    31  C   -0.000293   0.000000   0.000038   0.008948   0.000000  -0.001117
    32  H    0.000149   0.000000  -0.000001  -0.009662   0.000000  -0.000272
    33  C    0.000031   0.000002  -0.000327  -0.000929  -0.000000   0.010493
    34  H    0.000001  -0.000001   0.000048  -0.000271   0.000004  -0.013056
    35  H    0.000002   0.000000  -0.000000  -0.000189  -0.000000   0.000013
    36  H   -0.000000  -0.000000   0.000002   0.000011  -0.000000  -0.000178
              25         26         27         28         29         30
     1  C   -0.000000   0.000000   0.000000  -0.000000   0.000000   0.000000
     2  C   -0.000000   0.000000  -0.000000  -0.000000   0.000000  -0.000000
     3  C    0.000000   0.000000  -0.000000   0.000000   0.000000   0.000000
     4  C   -0.000000   0.000000  -0.000000   0.000000  -0.000000   0.000000
     5  C    0.000000  -0.000000  -0.000000   0.000000  -0.000000  -0.000000
     6  C    0.000003  -0.000002  -0.000000  -0.000000   0.000000   0.000000
     7  C   -0.000236   0.000186   0.000002  -0.000003   0.000002   0.000000
     8  C    0.006369  -0.007643   0.000665  -0.000231  -0.000347   0.000006
     9  C   -0.000021   0.000008  -0.000250   0.000245   0.000000   0.000001
    10  C    0.000000  -0.000000   0.000002  -0.000004   0.000000  -0.000000
    11  C   -0.000000   0.000000   0.000000  -0.000000  -0.000000  -0.000000
    12  H   -0.000000  -0.000000   0.000000   0.000000  -0.000000   0.000000
    13  H    0.000000  -0.000000   0.000000  -0.000000  -0.000000  -0.000000
    14  H    0.000000  -0.000000  -0.000000  -0.000000   0.000000  -0.000000
    15  H    0.000000  -0.000000  -0.000000  -0.000000  -0.000000  -0.000000
    16  H   -0.000000   0.000002   0.000000   0.000000  -0.000000   0.000000
    17  H    0.000176   0.005995   0.000003   0.000004  -0.000006  -0.000000
    18  H    0.000000   0.000000  -0.000000   0.000002   0.000000   0.000000
    19  C    0.011915  -0.044710  -0.036076   0.005413   0.006552  -0.000054
    20  C    0.000448  -0.000207   0.005643  -0.010298   0.000001  -0.000225
    21  C   -0.043776   0.004573   0.015524  -0.049652   0.000446   0.007982
    22  C    0.444472   0.344866  -0.033583   0.000818  -0.088677   0.018756
    23  H    0.000003   0.000004   0.000100   0.006632  -0.000000  -0.000001
    24  C   -0.029644   0.000719   0.432189   0.338919   0.019853  -0.095259
    25  C    4.756882  -0.042386   0.454176   0.007552   0.399081  -0.024736
    26  H   -0.042386   0.616000   0.005662   0.000034  -0.010128  -0.000273
    27  C    0.454176   0.005662   4.709656  -0.042999  -0.026073   0.415561
    28  H    0.007552   0.000034  -0.042999   0.631731  -0.000364  -0.011713
    29  C    0.399081  -0.010128  -0.026073  -0.000364   5.113681  -0.083005
    30  C   -0.024736  -0.000273   0.415561  -0.011713  -0.083005   5.105485
    31  C   -0.000250   0.000206  -0.043300   0.000032   0.546132  -0.014919
    32  H   -0.042288   0.007884   0.005071   0.000005   0.352143   0.000618
    33  C   -0.043426   0.000021   0.003540   0.000049  -0.019279   0.540411
    34  H    0.006948   0.000005  -0.042608   0.009937   0.000622   0.345208
    35  H    0.002867  -0.000017   0.001066  -0.000000  -0.034694   0.004955
    36  H    0.000831  -0.000000   0.002771  -0.000015   0.004627  -0.036510
              31         32         33         34         35         36
     1  C    0.000000   0.000000  -0.000000   0.000000   0.000000   0.000000
     2  C    0.000000  -0.000000   0.000000  -0.000000   0.000000  -0.000000
     3  C   -0.000000   0.000000   0.000000  -0.000000   0.000000   0.000000
     4  C    0.000000  -0.000000   0.000000  -0.000000  -0.000000   0.000000
     5  C   -0.000000   0.000000   0.000000  -0.000000  -0.000000   0.000000
     6  C    0.000000   0.000000  -0.000000   0.000000  -0.000000  -0.000000
     7  C    0.000000  -0.000000  -0.000000   0.000000   0.000000  -0.000000
     8  C    0.000003  -0.000003  -0.000000  -0.000000  -0.000000   0.000000
     9  C   -0.000000  -0.000000   0.000000  -0.000000   0.000000  -0.000000
    10  C   -0.000000   0.000000   0.000000  -0.000000  -0.000000  -0.000000
    11  C    0.000000   0.000000  -0.000000   0.000000   0.000000  -0.000000
    12  H    0.000000  -0.000000   0.000000   0.000000   0.000000   0.000000
    13  H    0.000000   0.000000   0.000000   0.000000   0.000000  -0.000000
    14  H    0.000000   0.000000   0.000000  -0.000000   0.000000   0.000000
    15  H   -0.000000   0.000000   0.000000  -0.000000  -0.000000   0.000000
    16  H    0.000000  -0.000000  -0.000000  -0.000000  -0.000000   0.000000
    17  H    0.000000   0.000003   0.000000   0.000000  -0.000000   0.000000
    18  H    0.000000  -0.000000   0.000000  -0.000000  -0.000000  -0.000000
    19  C   -0.000293   0.000149   0.000031   0.000001   0.000002  -0.000000
    20  C    0.000000   0.000000   0.000002  -0.000001   0.000000  -0.000000
    21  C    0.000038  -0.000001  -0.000327   0.000048  -0.000000   0.000002
    22  C    0.008948  -0.009662  -0.000929  -0.000271  -0.000189   0.000011
    23  H    0.000000   0.000000  -0.000000   0.000004  -0.000000  -0.000000
    24  C   -0.001117  -0.000272   0.010493  -0.013056   0.000013  -0.000178
    25  C   -0.000250  -0.042288  -0.043426   0.006948   0.002867   0.000831
    26  H    0.000206   0.007884   0.000021   0.000005  -0.000017  -0.000000
    27  C   -0.043300   0.005071   0.003540  -0.042608   0.001066   0.002771
    28  H    0.000032   0.000005   0.000049   0.009937  -0.000000  -0.000015
    29  C    0.546132   0.352143  -0.019279   0.000622  -0.034694   0.004627
    30  C   -0.014919   0.000618   0.540411   0.345208   0.004955  -0.036510
    31  C    4.898161  -0.044694   0.472030   0.005407   0.353734  -0.041849
    32  H   -0.044694   0.607826   0.004908   0.000023  -0.006243  -0.000194
    33  C    0.472030   0.004908   4.896999  -0.048411  -0.044939   0.357250
    34  H    0.005407   0.000023  -0.048411   0.620956  -0.000224  -0.005825
    35  H    0.353734  -0.006243  -0.044939  -0.000224   0.603020  -0.006084
    36  H   -0.041849  -0.000194   0.357250  -0.005825  -0.006084   0.590789
 Mulliken charges:
               1
     1  C   -0.128421
     2  C   -0.180565
     3  C   -0.138270
     4  C   -0.172287
     5  C    0.173259
     6  C   -0.297557
     7  C    0.127247
     8  C   -0.232849
     9  C    0.124893
    10  C   -0.275411
    11  C    0.135039
    12  H    0.134374
    13  H    0.124728
    14  H    0.126733
    15  H    0.121237
    16  H    0.113907
    17  H    0.124743
    18  H    0.119200
    19  C    0.124893
    20  C   -0.232849
    21  C    0.127247
    22  C   -0.275411
    23  H    0.124743
    24  C   -0.297557
    25  C    0.135039
    26  H    0.119200
    27  C    0.173259
    28  H    0.113907
    29  C   -0.180565
    30  C   -0.172287
    31  C   -0.138270
    32  H    0.124728
    33  C   -0.128421
    34  H    0.121237
    35  H    0.126733
    36  H    0.134374
 Sum of Mulliken charges =  -0.00000
 Mulliken charges with hydrogens summed into heavy atoms:
               1
     1  C    0.005953
     2  C   -0.055837
     3  C   -0.011537
     4  C   -0.051050
     5  C    0.173259
     6  C   -0.183651
     7  C    0.127247
     8  C   -0.108106
     9  C    0.124893
    10  C   -0.156211
    11  C    0.135039
    19  C    0.124893
    20  C   -0.108106
    21  C    0.127247
    22  C   -0.156211
    24  C   -0.183651
    25  C    0.135039
    27  C    0.173259
    29  C   -0.055837
    30  C   -0.051050
    31  C   -0.011537
    33  C    0.005953
 Electronic spatial extent (au):  <R**2>=           9174.0687
 Charge=             -0.0000 electrons
 Dipole moment (field-independent basis, Debye):
    X=              0.0000    Y=             -0.0000    Z=             -0.0000  Tot=              0.0000
 Quadrupole moment (field-independent basis, Debye-Ang):
   XX=           -126.4409   YY=           -116.3880   ZZ=           -108.2744
   XY=              8.7934   XZ=             -2.0567   YZ=              0.2725
 Traceless Quadrupole moment (field-independent basis, Debye-Ang):
   XX=             -9.4065   YY=              0.6464   ZZ=              8.7601
   XY=              8.7934   XZ=             -2.0567   YZ=              0.2725
 Octapole moment (field-independent basis, Debye-Ang**2):
  XXX=              0.0000  YYY=              0.0000  ZZZ=              0.0000  XYY=             -0.0000
  XXY=             -0.0000  XXZ=             -0.0000  XZZ=             -0.0000  YZZ=              0.0000
  YYZ=             -0.0000  XYZ=              0.0000
 Hexadecapole moment (field-independent basis, Debye-Ang**3):
 XXXX=          -1221.4077 YYYY=          -1550.2284 ZZZZ=          -8944.4975 XXXY=           -579.8219
 XXXZ=           1401.5744 YYYX=           -508.6120 YYYZ=           1190.5629 ZZZX=           1094.6654
 ZZZY=           1085.2750 XXYY=           -410.1344 XXZZ=          -1885.6605 YYZZ=          -1866.3871
 XXYZ=            357.9490 YYXZ=            375.1159 ZZXY=            -39.6596
 N-N= 1.511843008077D+03 E-N=-4.985278970114D+03  KE= 8.402192019393D+02
 Symmetry AG   KE= 4.212188573041D+02
 Symmetry AU   KE= 4.190003446353D+02
 No NMR shielding tensors so no spin-rotation constants.
 Leave Link  601 at Fri Apr  4 11:59:30 2025, MaxMem=  2415919104 cpu:               2.3 elap:               0.3
 (Enter /opt/software/gaussian/g16_avx/g16/l9999.exe)
 Unable to Open any file for archive entry.
 1\1\GINC-WEE15\SP\RB3LYP\6-31G(d)\C22H14\DKB18196\04-Apr-2025\0\\#p B3
 LYP/6-31G(d) SP\\Molecule_PENCEN\\0,1\C,0,-1.3242,-1.0531,5.9036\C,0,-
 1.9511,-2.3883,4.0401\C,0,-1.95,-2.1472,5.3743\C,0,-0.7389,-0.1753,5.0
 625\C,0,-0.7026,-0.3518,3.637\C,0,-0.0856,0.4558,2.7466\C,0,-0.0904,0.
 3032,1.3776\C,0,0.6176,1.1704,0.4858\C,0,-0.5826,-0.9036,0.8222\C,0,-1
 .2835,-1.7553,1.7764\C,0,-1.271,-1.5305,3.1164\H,0,-1.3311,-0.8519,6.9
 898\H,0,-2.4053,-3.2981,3.6399\H,0,-2.4441,-2.8444,6.0907\H,0,-0.2026,
 0.7192,5.3656\H,0,0.397,1.3169,3.1613\H,0,1.0652,2.0135,0.8846\H,0,-1.
 7421,-2.6674,1.4212\C,0,0.5826,0.9036,-0.8222\C,0,-0.6176,-1.1704,-0.4
 858\C,0,0.0904,-0.3032,-1.3776\C,0,1.2835,1.7553,-1.7764\H,0,-1.0652,-
 2.0135,-0.8846\C,0,0.0856,-0.4558,-2.7466\C,0,1.271,1.5305,-3.1164\H,0
 ,1.7421,2.6674,-1.4212\C,0,0.7026,0.3518,-3.637\H,0,-0.397,-1.3169,-3.
 1613\C,0,1.9511,2.3883,-4.0401\C,0,0.7389,0.1753,-5.0625\C,0,1.95,2.14
 72,-5.3743\H,0,2.4053,3.2981,-3.6399\C,0,1.3242,1.0531,-5.9036\H,0,0.2
 026,-0.7192,-5.3656\H,0,2.4441,2.8444,-6.0907\H,0,1.3311,0.8519,-6.989
 8\\Version=ES64L-G16RevC.01\State=1-AG\HF=-846.7411657\RMSD=5.077e-09\
 Dipole=0.,0.,0.\Quadrupole=-6.993473,0.4805812,6.5128917,6.5376621,-1.
 5291283,0.2026269\PG=CI [X(C22H14)]\\@
 The archive entry for this job was punched.


 THE FIRST AND LAST THING REQUIRED OF GENIUS IS THE LOVE OF TRUTH.

                          -- GOETHE
 Job cpu time:       0 days  0 hours  4 minutes 35.3 seconds.
 Elapsed time:       0 days  0 hours  0 minutes 34.9 seconds.
 File lengths (MBytes):  RWF=    132 Int=      0 D2E=      0 Chk=     12 Scr=      8
 Normal termination of Gaussian 16 at Fri Apr  4 11:59:31 2025.
